<?xml version="1.0"?>
<VTKFile byte_order="LittleEndian" type="PolyData" version="0.1">
<PolyData>
<Piece NumberOfLines="30" NumberOfPoints="31" NumberOfPolys="0" NumberOfStrips="0" NumberOfVerts="0">
<Points>
<DataArray NumberOfComponents="3" format="ascii" type="Float32">
-0.00715608 0 186.882 -18.2359 0 174.068 -36.4995 0 161.304 -54.7978 0 148.59 -63.9599 0 142.252 -82.3102 0 129.613 -91.4982 0 123.313 -100.695 0 117.025 -119.114 0 104.487 -137.567 0 91.9993 -156.054 0 79.5631 -165.311 0 73.3642 -73.1307 0 135.926 -174.576 0 67.1781 -27.3633 0 167.68 -193.133 0 54.8451 -9.1172 0 180.469 -202.424 0 48.6983 -211.723 0 42.5646 -221.032 0 36.4442 -146.806 0 85.7748 -230.349 0 30.3371 -128.336 0 98.2365 -183.85 0 61.0051 -239.675 0 24.2432 -249.009 0 18.1625 -258.352 0 12.0949 -45.6444 0 154.941 -109.9 0 110.749 -267.704 0 6.04072 -277.064 0 0 
</DataArray>
</Points>
<PointData>
<DataArray Name="velocity_mag" format="ascii" type="Float32">
0 0.0236553 0.0279329 0.0359511 0.0361117 0.0414975 0.0431344 0.0465593 0.0477813 0.051728 0.0542816 0.0572 0.0385125 0.0611753 0.0243524 0.0596827 0.0247033 0.0572706 0.0528704 0.046123 0.0530897 0.0415835 0.0501221 0.0604458 0.0369469 0.0283456 0.0199026 0.0333466 0.0474554 0.00979532 0 
</DataArray>
</PointData>
<CellData Normals="cell_normals" Scalars="cell_scalars">
<DataArray Name="tension" format="ascii" type="Float32">
4.10226e+06 4.10587e+06 4.10931e+06 4.11261e+06 4.11583e+06 4.11909e+06 4.12251e+06 4.12618e+06 4.13017e+06 4.13447e+06 4.139e+06 4.14360e+06 4.14812e+06 4.15239e+06 4.15633e+06 4.15989e+06 4.16315e+06 4.16621e+06 4.16923e+06 4.17235e+06 4.17565e+06 4.17915e+06 4.1828e+06 4.18651e+06 4.19018e+06 4.19375e+06 4.19724e+06 4.20071e+06 4.20424e+06 4.21078e+06 
</DataArray>
<DataArray Name="strain" format="ascii" type="Float32">
0.00267842 0.00268078 0.00268302 0.00268517 0.00268728 0.00268941 0.00269163 0.00269403 0.00269664 0.00269945 0.0027024 0.00270541 0.00270836 0.00271115 0.00271371 0.00271604 0.00271817 0.00272017 0.00272214 0.00272418 0.00272633 0.00272861 0.002731 0.00273342 0.00273582 0.00273815 0.00274043 0.0027427 0.002745 0.00274927 
</DataArray>
</CellData>
<Polys>
<DataArray Name="connectivity" format="ascii" type="Int32">

</DataArray>
<DataArray Name="offsets" format="ascii" type="Int32">

</DataArray>
</Polys>
<Lines>
<DataArray Name="connectivity" format="ascii" type="Int32">
30 29 29 26 26 25 25 24 24 21 21 19 19 18 18 17 17 15 15 23 23 13 13 11 11 10 10 20 20 9 9 22 22 8 8 28 28 7 7 6 6 5 5 12 12 4 4 3 3 27 27 2 2 14 14 1 1 16 16 0 
</DataArray>
<DataArray Name="offsets" format="ascii" type="Int32">
2 4 6 8 10 12 14 16 18 20 22 24 26 28 30 32 34 36 38 40 42 44 46 48 50 52 54 56 58 60 
</DataArray>
</Lines>
</Piece>
</PolyData>
</VTKFile>
