<?xml version="1.0"?>
<VTKFile byte_order="LittleEndian" type="PolyData" version="0.1">
<PolyData>
<Piece NumberOfLines="30" NumberOfPoints="31" NumberOfPolys="0" NumberOfStrips="0" NumberOfVerts="0">
<Points>
<DataArray NumberOfComponents="3" format="ascii" type="Float32">
0 0 186.882 -18.2302 0 174.069 -36.495 0 161.306 -54.7944 0 148.593 -63.9571 0 142.255 -82.3083 0 129.617 -91.4967 0 123.317 -100.694 0 117.03 -119.114 0 104.492 -137.568 0 92.0053 -156.056 0 79.5693 -165.313 0 73.3704 -73.1284 0 135.93 -174.578 0 67.1844 -27.3583 0 167.682 -193.134 0 54.851 -9.11076 0 180.469 -202.426 0 48.7038 -211.725 0 42.5696 -221.034 0 36.4486 -146.807 0 85.7809 -230.35 0 30.3406 -128.336 0 98.2424 -183.852 0 61.0112 -239.676 0 24.2459 -249.01 0 18.1644 -258.353 0 12.0962 -45.6404 0 154.944 -109.899 0 110.755 -267.704 0 6.04143 -277.064 0 0 
</DataArray>
</Points>
<PointData>
<DataArray Name="velocity_mag" format="ascii" type="Float32">
0 0.00183396 0.00366144 0.00542527 0.00625726 0.00775686 0.00839656 0.00894446 0.00971612 0.00999595 0.00975368 0.00944189 0.00703906 0.00901217 0.00275134 0.00784193 0.000915482 0.00712716 0.00634457 0.00550816 0.00993989 0.00463124 0.00992063 0.00847478 0.00372586 0.00280252 0.00186977 0.00455611 0.00938792 0.000934143 0 
</DataArray>
</PointData>
<CellData Normals="cell_normals" Scalars="cell_scalars">
<DataArray Name="tension" format="ascii" type="Float32">
4.12554e+06 4.12936e+06 4.13318e+06 4.13702e+06 4.14086e+06 4.14471e+06 4.14857e+06 4.15243e+06 4.15631e+06 4.16019e+06 4.16408e+06 4.16798e+06 4.17189e+06 4.17581e+06 4.17973e+06 4.18366e+06 4.1876e+06 4.19155e+06 4.19551e+06 4.19947e+06 4.20344e+06 4.20742e+06 4.21141e+06 4.2154e+06 4.21941e+06 4.22342e+06 4.22744e+06 4.23146e+06 4.2355e+06 4.23954e+06 
</DataArray>
<DataArray Name="strain" format="ascii" type="Float32">
0.00269362 0.00269611 0.0026986 0.00270111 0.00270362 0.00270613 0.00270865 0.00271117 0.0027137 0.00271624 0.00271878 0.00272133 0.00272388 0.00272643 0.002729 0.00273156 0.00273414 0.00273671 0.0027393 0.00274188 0.00274448 0.00274708 0.00274968 0.00275229 0.0027549 0.00275752 0.00276014 0.00276277 0.00276541 0.00276805 
</DataArray>
</CellData>
<Polys>
<DataArray Name="connectivity" format="ascii" type="Int32">

</DataArray>
<DataArray Name="offsets" format="ascii" type="Int32">

</DataArray>
</Polys>
<Lines>
<DataArray Name="connectivity" format="ascii" type="Int32">
30 29 29 26 26 25 25 24 24 21 21 19 19 18 18 17 17 15 15 23 23 13 13 11 11 10 10 20 20 9 9 22 22 8 8 28 28 7 7 6 6 5 5 12 12 4 4 3 3 27 27 2 2 14 14 1 1 16 16 0 
</DataArray>
<DataArray Name="offsets" format="ascii" type="Int32">
2 4 6 8 10 12 14 16 18 20 22 24 26 28 30 32 34 36 38 40 42 44 46 48 50 52 54 56 58 60 
</DataArray>
</Lines>
</Piece>
</PolyData>
</VTKFile>
