<?xml version="1.0"?>
<VTKFile byte_order="LittleEndian" type="PolyData" version="0.1">
<PolyData>
<Piece NumberOfLines="30" NumberOfPoints="31" NumberOfPolys="0" NumberOfStrips="0" NumberOfVerts="0">
<Points>
<DataArray NumberOfComponents="3" format="ascii" type="Float32">
0.0201059 0 186.882 -18.2151 0 174.074 -36.4843 0 161.316 -54.7873 0 148.606 -63.9516 0 142.269 -82.3058 0 129.634 -91.4955 0 123.334 -100.694 0 117.048 -119.115 0 104.511 -137.571 0 92.0244 -156.06 0 79.5882 -165.317 0 73.3891 -73.1245 0 135.945 -174.583 0 67.2028 -27.3455 0 167.689 -193.14 0 54.8685 -9.09327 0 180.472 -202.432 0 48.7206 -211.731 0 42.5855 -221.039 0 36.4631 -146.811 0 85.8 -230.356 0 30.3535 -128.339 0 98.2614 -183.858 0 61.0293 -239.681 0 24.2568 -249.014 0 18.1731 -258.355 0 12.1024 -45.6315 0 154.954 -109.9 0 110.773 -267.706 0 6.04462 -277.064 0 0 
</DataArray>
</Points>
<PointData>
<DataArray Name="velocity_mag" format="ascii" type="Float32">
0 0.0226527 0.0270154 0.0336626 0.03328 0.0324428 0.0336893 0.0344601 0.0353865 0.0330397 0.0229189 0.0184466 0.0325307 0.0191205 0.0245633 0.0126278 0.0200666 0.00884857 0.0079227 0.00613138 0.0282265 0.00553231 0.0355925 0.0179123 0.00766441 0.00530222 0.00259797 0.0319659 0.0335947 0.00187697 0 
</DataArray>
</PointData>
<CellData Normals="cell_normals" Scalars="cell_scalars">
<DataArray Name="tension" format="ascii" type="Float32">
4.1943e+06 4.19818e+06 4.20216e+06 4.20625e+06 4.21045e+06 4.21476e+06 4.21913e+06 4.22349e+06 4.22778e+06 4.23198e+06 4.23609e+06 4.24015e+06 4.24421e+06 4.24831e+06 4.25248e+06 4.25671e+06 4.26096e+06 4.26518e+06 4.26934e+06 4.27343e+06 4.27751e+06 4.28166e+06 4.28601e+06 4.29067e+06 4.2957e+06 4.30106e+06 4.30662e+06 4.31213e+06 4.31738e+06 4.32043e+06 
</DataArray>
<DataArray Name="strain" format="ascii" type="Float32">
0.00273851 0.00274104 0.00274364 0.00274631 0.00274906 0.00275187 0.00275472 0.00275757 0.00276037 0.00276311 0.00276579 0.00276844 0.00277109 0.00277377 0.00277649 0.00277925 0.00278203 0.00278479 0.0027875 0.00279017 0.00279284 0.00279555 0.00279839 0.00280143 0.00280471 0.00280822 0.00281184 0.00281544 0.00281887 0.00282086 
</DataArray>
</CellData>
<Polys>
<DataArray Name="connectivity" format="ascii" type="Int32">

</DataArray>
<DataArray Name="offsets" format="ascii" type="Int32">

</DataArray>
</Polys>
<Lines>
<DataArray Name="connectivity" format="ascii" type="Int32">
30 29 29 26 26 25 25 24 24 21 21 19 19 18 18 17 17 15 15 23 23 13 13 11 11 10 10 20 20 9 9 22 22 8 8 28 28 7 7 6 6 5 5 12 12 4 4 3 3 27 27 2 2 14 14 1 1 16 16 0 
</DataArray>
<DataArray Name="offsets" format="ascii" type="Int32">
2 4 6 8 10 12 14 16 18 20 22 24 26 28 30 32 34 36 38 40 42 44 46 48 50 52 54 56 58 60 
</DataArray>
</Lines>
</Piece>
</PolyData>
</VTKFile>
