<?xml version="1.0"?>
<VTKFile byte_order="LittleEndian" type="PolyData" version="0.1">
<PolyData>
<Piece NumberOfLines="30" NumberOfPoints="31" NumberOfPolys="0" NumberOfStrips="0" NumberOfVerts="0">
<Points>
<DataArray NumberOfComponents="3" format="ascii" type="Float32">
-0.00241681 0 186.882 -18.2323 0 174.069 -36.4967 0 161.306 -54.7958 0 148.592 -63.9584 0 142.255 -82.3094 0 129.617 -91.4979 0 123.317 -100.695 0 117.029 -119.115 0 104.492 -137.569 0 92.0056 -156.057 0 79.5697 -165.314 0 73.371 -73.1295 0 135.929 -174.579 0 67.1853 -27.3602 0 167.681 -193.136 0 54.8522 -9.11302 0 180.469 -202.427 0 48.7051 -211.727 0 42.5709 -221.035 0 36.4497 -146.809 0 85.7812 -230.352 0 30.3418 -128.338 0 98.2427 -183.853 0 61.0123 -239.677 0 24.247 -249.011 0 18.1653 -258.353 0 12.0967 -45.642 0 154.943 -109.901 0 110.754 -267.704 0 6.04161 -277.064 0 0 
</DataArray>
</Points>
<PointData>
<DataArray Name="velocity_mag" format="ascii" type="Float32">
0 0.0260103 0.0223392 0.0178175 0.017819 0.0230158 0.0260155 0.0302749 0.0352676 0.0353697 0.0304245 0.0275591 0.0195113 0.0261772 0.0240218 0.0234447 0.0279949 0.024388 0.0254372 0.0252093 0.0337304 0.0221677 0.0360495 0.0247708 0.0171766 0.0125355 0.00800146 0.0191367 0.0337639 0.0044165 0 
</DataArray>
</PointData>
<CellData Normals="cell_normals" Scalars="cell_scalars">
<DataArray Name="tension" format="ascii" type="Float32">
4.1157e+06 4.11964e+06 4.12364e+06 4.12761e+06 4.13152e+06 4.1354e+06 4.13937e+06 4.14354e+06 4.14793e+06 4.15248e+06 4.157e+06 4.16132e+06 4.16531e+06 4.16897e+06 4.17235e+06 4.17553e+06 4.17856e+06 4.18153e+06 4.18453e+06 4.18773e+06 4.19132e+06 4.1954e+06 4.1999e+06 4.20465e+06 4.20936e+06 4.21384e+06 4.218e+06 4.22193e+06 4.22571e+06 4.23248e+06 
</DataArray>
<DataArray Name="strain" format="ascii" type="Float32">
0.00268719 0.00268976 0.00269237 0.00269497 0.00269752 0.00270005 0.00270264 0.00270536 0.00270823 0.0027112 0.00271416 0.00271698 0.00271958 0.00272197 0.00272418 0.00272625 0.00272823 0.00273017 0.00273213 0.00273422 0.00273656 0.00273922 0.00274217 0.00274526 0.00274834 0.00275126 0.00275398 0.00275655 0.00275902 0.00276344 
</DataArray>
</CellData>
<Polys>
<DataArray Name="connectivity" format="ascii" type="Int32">

</DataArray>
<DataArray Name="offsets" format="ascii" type="Int32">

</DataArray>
</Polys>
<Lines>
<DataArray Name="connectivity" format="ascii" type="Int32">
30 29 29 26 26 25 25 24 24 21 21 19 19 18 18 17 17 15 15 23 23 13 13 11 11 10 10 20 20 9 9 22 22 8 8 28 28 7 7 6 6 5 5 12 12 4 4 3 3 27 27 2 2 14 14 1 1 16 16 0 
</DataArray>
<DataArray Name="offsets" format="ascii" type="Int32">
2 4 6 8 10 12 14 16 18 20 22 24 26 28 30 32 34 36 38 40 42 44 46 48 50 52 54 56 58 60 
</DataArray>
</Lines>
</Piece>
</PolyData>
</VTKFile>
