<?xml version="1.0"?>
<VTKFile byte_order="LittleEndian" type="PolyData" version="0.1">
<PolyData>
<Piece NumberOfLines="30" NumberOfPoints="31" NumberOfPolys="0" NumberOfStrips="0" NumberOfVerts="0">
<Points>
<DataArray NumberOfComponents="3" format="ascii" type="Float32">
0.0210828 0 186.882 -18.2115 0 174.071 -36.4786 0 161.309 -54.7799 0 148.596 -63.9434 0 142.259 -82.2957 0 129.62 -91.4846 0 123.32 -100.682 0 117.031 -119.103 0 104.493 -137.558 0 92.0061 -156.047 0 79.5698 -165.305 0 73.3711 -73.1153 0 135.933 -174.571 0 67.1853 -27.3408 0 167.683 -193.13 0 54.8526 -9.09095 0 180.47 -202.421 0 48.7057 -211.722 0 42.5718 -221.031 0 36.4509 -146.798 0 85.7816 -230.349 0 30.3431 -128.326 0 98.2433 -183.846 0 61.0125 -239.675 0 24.2484 -249.009 0 18.1666 -258.352 0 12.0979 -45.625 0 154.946 -109.888 0 110.756 -267.704 0 6.0424 -277.064 0 0 
</DataArray>
</Points>
<PointData>
<DataArray Name="velocity_mag" format="ascii" type="Float32">
0 0.021507 0.0250268 0.025219 0.0239493 0.0232342 0.0231416 0.0232872 0.0249158 0.0214692 0.0143192 0.0107219 0.0233881 0.00847054 0.0231765 0.00862489 0.0192239 0.00607108 0.00439914 0.00425039 0.0178945 0.00636764 0.0242388 0.00827574 0.00655388 0.00448626 0.0011497 0.0256728 0.0243661 0.00103948 0 
</DataArray>
</PointData>
<CellData Normals="cell_normals" Scalars="cell_scalars">
<DataArray Name="tension" format="ascii" type="Float32">
4.20112e+06 4.20495e+06 4.20882e+06 4.2128e+06 4.21693e+06 4.22122e+06 4.22568e+06 4.23023e+06 4.23479e+06 4.23929e+06 4.24368e+06 4.24795e+06 4.25214e+06 4.25631e+06 4.26048e+06 4.26461e+06 4.26866e+06 4.27257e+06 4.27631e+06 4.27989e+06 4.28343e+06 4.28706e+06 4.29095e+06 4.29526e+06 4.30004e+06 4.30525e+06 4.31074e+06 4.31626e+06 4.32148e+06 4.32767e+06 
</DataArray>
<DataArray Name="strain" format="ascii" type="Float32">
0.00274296 0.00274546 0.00274799 0.00275059 0.00275328 0.00275609 0.002759 0.00276197 0.00276495 0.00276788 0.00277075 0.00277354 0.00277628 0.002779 0.00278172 0.00278442 0.00278706 0.00278961 0.00279205 0.00279439 0.0027967 0.00279907 0.00280162 0.00280443 0.00280755 0.00281095 0.00281453 0.00281814 0.00282155 0.00282559 
</DataArray>
</CellData>
<Polys>
<DataArray Name="connectivity" format="ascii" type="Int32">

</DataArray>
<DataArray Name="offsets" format="ascii" type="Int32">

</DataArray>
</Polys>
<Lines>
<DataArray Name="connectivity" format="ascii" type="Int32">
30 29 29 26 26 25 25 24 24 21 21 19 19 18 18 17 17 15 15 23 23 13 13 11 11 10 10 20 20 9 9 22 22 8 8 28 28 7 7 6 6 5 5 12 12 4 4 3 3 27 27 2 2 14 14 1 1 16 16 0 
</DataArray>
<DataArray Name="offsets" format="ascii" type="Int32">
2 4 6 8 10 12 14 16 18 20 22 24 26 28 30 32 34 36 38 40 42 44 46 48 50 52 54 56 58 60 
</DataArray>
</Lines>
</Piece>
</PolyData>
</VTKFile>
