<?xml version="1.0"?>
<VTKFile byte_order="LittleEndian" type="PolyData" version="0.1">
<PolyData>
<Piece NumberOfLines="30" NumberOfPoints="31" NumberOfPolys="0" NumberOfStrips="0" NumberOfVerts="0">
<Points>
<DataArray NumberOfComponents="3" format="ascii" type="Float32">
0.0151503 0 186.882 -18.2211 0 174.077 -36.4914 0 161.32 -54.7957 0 148.613 -63.9604 0 142.277 -82.3152 0 129.643 -91.5052 0 123.345 -100.704 0 117.058 -119.125 0 104.522 -137.581 0 92.0363 -156.07 0 79.6002 -165.327 0 73.401 -73.1337 0 135.954 -174.592 0 67.2143 -27.352 0 167.692 -193.148 0 54.8784 -9.09869 0 180.473 -202.438 0 48.7293 -211.737 0 42.593 -221.044 0 36.4695 -146.821 0 85.8119 -230.36 0 30.3588 -128.349 0 98.2731 -183.866 0 61.0402 -239.684 0 24.261 -249.016 0 18.176 -258.357 0 12.1042 -45.6393 0 154.96 -109.91 0 110.784 -267.706 0 6.0456 -277.064 0 0 
</DataArray>
</Points>
<PointData>
<DataArray Name="velocity_mag" format="ascii" type="Float32">
0 0.0202659 0.0179054 0.0114796 0.00970766 0.0129862 0.0154406 0.0179969 0.0196685 0.0155369 0.00756182 0.00400513 0.00987229 0.00610697 0.0193102 0.0109374 0.0210234 0.0132887 0.0131465 0.0138903 0.0115751 0.014098 0.0193722 0.00862107 0.012028 0.00824343 0.00530776 0.0151188 0.0201563 0.00321772 0 
</DataArray>
</PointData>
<CellData Normals="cell_normals" Scalars="cell_scalars">
<DataArray Name="tension" format="ascii" type="Float32">
4.1858e+06 4.18891e+06 4.1917e+06 4.19461e+06 4.19785e+06 4.20127e+06 4.20456e+06 4.20755e+06 4.2103e+06 4.21297e+06 4.21575e+06 4.21874e+06 4.22201e+06 4.22569e+06 4.22984e+06 4.23444e+06 4.23926e+06 4.24399e+06 4.24837e+06 4.25231e+06 4.25588e+06 4.25921e+06 4.26244e+06 4.26573e+06 4.26927e+06 4.27323e+06 4.27769e+06 4.28253e+06 4.28747e+06 4.2898e+06 
</DataArray>
<DataArray Name="strain" format="ascii" type="Float32">
0.00273296 0.00273499 0.00273681 0.00273871 0.00274083 0.00274306 0.00274521 0.00274716 0.00274895 0.0027507 0.00275252 0.00275446 0.0027566 0.002759 0.00276172 0.00276472 0.00276786 0.00277095 0.00277381 0.00277638 0.00277871 0.00278089 0.002783 0.00278515 0.00278746 0.00279004 0.00279296 0.00279612 0.00279934 0.00280086 
</DataArray>
</CellData>
<Polys>
<DataArray Name="connectivity" format="ascii" type="Int32">

</DataArray>
<DataArray Name="offsets" format="ascii" type="Int32">

</DataArray>
</Polys>
<Lines>
<DataArray Name="connectivity" format="ascii" type="Int32">
30 29 29 26 26 25 25 24 24 21 21 19 19 18 18 17 17 15 15 23 23 13 13 11 11 10 10 20 20 9 9 22 22 8 8 28 28 7 7 6 6 5 5 12 12 4 4 3 3 27 27 2 2 14 14 1 1 16 16 0 
</DataArray>
<DataArray Name="offsets" format="ascii" type="Int32">
2 4 6 8 10 12 14 16 18 20 22 24 26 28 30 32 34 36 38 40 42 44 46 48 50 52 54 56 58 60 
</DataArray>
</Lines>
</Piece>
</PolyData>
</VTKFile>
