<?xml version="1.0"?>
<VTKFile byte_order="LittleEndian" type="PolyData" version="0.1">
<PolyData>
<Piece NumberOfLines="30" NumberOfPoints="31" NumberOfPolys="0" NumberOfStrips="0" NumberOfVerts="0">
<Points>
<DataArray NumberOfComponents="3" format="ascii" type="Float32">
-0.0110781 0 186.882 -18.2358 0 174.063 -36.4956 0 161.293 -54.7901 0 148.574 -63.9505 0 142.233 -82.2976 0 129.59 -91.4843 0 123.288 -100.68 0 116.999 -119.097 0 104.459 -137.55 0 91.971 -156.038 0 79.5353 -165.295 0 73.3372 -73.1197 0 135.905 -174.561 0 67.1523 -27.3613 0 167.672 -193.119 0 54.8223 -9.1191 0 180.466 -202.411 0 48.6772 -211.712 0 42.5453 -221.021 0 36.4269 -146.79 0 85.7466 -230.34 0 30.3221 -128.319 0 98.2085 -183.835 0 60.9807 -239.667 0 24.2307 -249.003 0 18.1527 -258.348 0 12.0882 -45.6385 0 154.927 -109.884 0 110.722 -267.702 0 6.03727 -277.064 0 0 
</DataArray>
</Points>
<PointData>
<DataArray Name="velocity_mag" format="ascii" type="Float32">
0 0.0231727 0.0278679 0.04757 0.0585212 0.0791006 0.0836294 0.0910809 0.100494 0.109781 0.108517 0.104167 0.0715448 0.101326 0.0234075 0.0934081 0.0234997 0.0866676 0.0772846 0.0676685 0.112576 0.0601778 0.104194 0.0973803 0.0471739 0.0377975 0.026801 0.0358665 0.0960797 0.0134489 0 
</DataArray>
</PointData>
<CellData Normals="cell_normals" Scalars="cell_scalars">
<DataArray Name="tension" format="ascii" type="Float32">
4.08698e+06 4.09068e+06 4.09426e+06 4.09769e+06 4.10104e+06 4.10443e+06 4.10804e+06 4.11201e+06 4.1164e+06 4.12113e+06 4.12607e+06 4.13109e+06 4.13607e+06 4.14097e+06 4.14575e+06 4.15035e+06 4.15471e+06 4.15873e+06 4.16239e+06 4.16575e+06 4.16894e+06 4.17213e+06 4.17541e+06 4.17885e+06 4.1824e+06 4.18601e+06 4.18965e+06 4.19331e+06 4.19709e+06 4.19839e+06 
</DataArray>
<DataArray Name="strain" format="ascii" type="Float32">
0.00266844 0.00267086 0.00267319 0.00267543 0.00267762 0.00267983 0.00268219 0.00268478 0.00268764 0.00269073 0.00269396 0.00269724 0.00270049 0.00270369 0.00270681 0.00270982 0.00271266 0.00271528 0.00271767 0.00271987 0.00272195 0.00272403 0.00272618 0.00272842 0.00273074 0.0027331 0.00273547 0.00273786 0.00274033 0.00274118 
</DataArray>
</CellData>
<Polys>
<DataArray Name="connectivity" format="ascii" type="Int32">

</DataArray>
<DataArray Name="offsets" format="ascii" type="Int32">

</DataArray>
</Polys>
<Lines>
<DataArray Name="connectivity" format="ascii" type="Int32">
30 29 29 26 26 25 25 24 24 21 21 19 19 18 18 17 17 15 15 23 23 13 13 11 11 10 10 20 20 9 9 22 22 8 8 28 28 7 7 6 6 5 5 12 12 4 4 3 3 27 27 2 2 14 14 1 1 16 16 0 
</DataArray>
<DataArray Name="offsets" format="ascii" type="Int32">
2 4 6 8 10 12 14 16 18 20 22 24 26 28 30 32 34 36 38 40 42 44 46 48 50 52 54 56 58 60 
</DataArray>
</Lines>
</Piece>
</PolyData>
</VTKFile>
