<?xml version="1.0"?>
<VTKFile byte_order="LittleEndian" type="PolyData" version="0.1">
<PolyData>
<Piece NumberOfLines="30" NumberOfPoints="31" NumberOfPolys="0" NumberOfStrips="0" NumberOfVerts="0">
<Points>
<DataArray NumberOfComponents="3" format="ascii" type="Float32">
-0.00886914 0 186.882 -18.2346 0 174.064 -36.4954 0 161.296 -54.7914 0 148.579 -63.9525 0 142.239 -82.3013 0 129.598 -91.4887 0 123.297 -100.685 0 117.008 -119.103 0 104.47 -137.556 0 91.9822 -156.044 0 79.5463 -165.301 0 73.3481 -73.1225 0 135.912 -174.567 0 67.163 -27.3607 0 167.674 -193.125 0 54.8322 -9.11732 0 180.467 -202.416 0 48.6865 -211.717 0 42.554 -221.026 0 36.4347 -146.796 0 85.7578 -230.344 0 30.3288 -128.326 0 98.2195 -183.841 0 60.991 -239.671 0 24.2362 -249.006 0 18.157 -258.35 0 12.0911 -45.639 0 154.931 -109.89 0 110.733 -267.703 0 6.03879 -277.064 0 0 
</DataArray>
</Points>
<PointData>
<DataArray Name="velocity_mag" format="ascii" type="Float32">
0 0.0251422 0.0397748 0.0581277 0.06564 0.0772052 0.0826034 0.088829 0.0983378 0.105513 0.106373 0.105129 0.0717164 0.102881 0.031696 0.0894837 0.022144 0.0858384 0.0836195 0.0765257 0.105516 0.0649708 0.10315 0.0972817 0.054525 0.0407831 0.0241183 0.0492998 0.0945538 0.0110811 0 
</DataArray>
</PointData>
<CellData Normals="cell_normals" Scalars="cell_scalars">
<DataArray Name="tension" format="ascii" type="Float32">
4.09574e+06 4.09932e+06 4.10272e+06 4.10601e+06 4.1093e+06 4.11269e+06 4.1163e+06 4.12022e+06 4.12452e+06 4.12918e+06 4.13412e+06 4.1392e+06 4.14421e+06 4.14896e+06 4.15331e+06 4.15722e+06 4.16072e+06 4.16397e+06 4.16713e+06 4.17036e+06 4.17374e+06 4.17729e+06 4.18096e+06 4.18465e+06 4.18827e+06 4.19178e+06 4.19519e+06 4.19859e+06 4.20214e+06 4.2032e+06 
</DataArray>
<DataArray Name="strain" format="ascii" type="Float32">
0.00267416 0.0026765 0.00267872 0.00268087 0.00268301 0.00268522 0.00268758 0.00269014 0.00269295 0.00269599 0.00269922 0.00270253 0.00270581 0.00270891 0.00271175 0.0027143 0.00271659 0.00271871 0.00272077 0.00272288 0.00272509 0.0027274 0.0027298 0.00273221 0.00273457 0.00273686 0.00273909 0.00274131 0.00274363 0.00274432 
</DataArray>
</CellData>
<Polys>
<DataArray Name="connectivity" format="ascii" type="Int32">

</DataArray>
<DataArray Name="offsets" format="ascii" type="Int32">

</DataArray>
</Polys>
<Lines>
<DataArray Name="connectivity" format="ascii" type="Int32">
30 29 29 26 26 25 25 24 24 21 21 19 19 18 18 17 17 15 15 23 23 13 13 11 11 10 10 20 20 9 9 22 22 8 8 28 28 7 7 6 6 5 5 12 12 4 4 3 3 27 27 2 2 14 14 1 1 16 16 0 
</DataArray>
<DataArray Name="offsets" format="ascii" type="Int32">
2 4 6 8 10 12 14 16 18 20 22 24 26 28 30 32 34 36 38 40 42 44 46 48 50 52 54 56 58 60 
</DataArray>
</Lines>
</Piece>
</PolyData>
</VTKFile>
