<?xml version="1.0"?>
<VTKFile byte_order="LittleEndian" type="PolyData" version="0.1">
<PolyData>
<Piece NumberOfLines="30" NumberOfPoints="31" NumberOfPolys="0" NumberOfStrips="0" NumberOfVerts="0">
<Points>
<DataArray NumberOfComponents="3" format="ascii" type="Float32">
-0.0244152 0 186.882 -18.2423 0 174.054 -36.4959 0 161.277 -54.7854 0 148.552 -63.9437 0 142.209 -82.2868 0 129.561 -91.4718 0 123.257 -100.666 0 116.966 -119.081 0 104.424 -137.532 0 91.935 -156.019 0 79.5001 -165.277 0 73.3028 -73.1108 0 135.878 -174.543 0 67.1192 -27.3646 0 167.659 -193.102 0 54.7926 -9.12894 0 180.462 -202.396 0 48.6498 -211.698 0 42.5207 -221.009 0 36.4055 -146.771 0 85.7108 -230.33 0 30.3037 -128.302 0 98.1727 -183.818 0 60.9491 -239.659 0 24.2155 -248.997 0 18.141 -258.344 0 12.0802 -45.6361 0 154.908 -109.869 0 110.688 -267.699 0 6.03324 -277.064 0 0 
</DataArray>
</Points>
<PointData>
<DataArray Name="velocity_mag" format="ascii" type="Float32">
0 0.00157321 0.00292138 0.0084262 0.0106967 0.0127896 0.0122349 0.0103425 0.0122446 0.0156078 0.014069 0.0125604 0.0121182 0.0139514 0.00300654 0.0161749 0.000981595 0.0141721 0.0136248 0.0141502 0.0168099 0.0129017 0.014996 0.0163584 0.0107873 0.00968791 0.00748159 0.00520785 0.00894741 0.00399583 0 
</DataArray>
</PointData>
<CellData Normals="cell_normals" Scalars="cell_scalars">
<DataArray Name="tension" format="ascii" type="Float32">
4.05079e+06 4.05435e+06 4.05768e+06 4.06082e+06 4.06382e+06 4.06673e+06 4.0696e+06 4.07246e+06 4.07534e+06 4.07827e+06 4.08129e+06 4.08444e+06 4.08776e+06 4.0913e+06 4.09506e+06 4.09901e+06 4.10307e+06 4.10714e+06 4.11112e+06 4.11493e+06 4.1186e+06 4.12219e+06 4.12582e+06 4.12962e+06 4.13367e+06 4.13799e+06 4.14251e+06 4.14712e+06 4.15167e+06 4.15584e+06 
</DataArray>
<DataArray Name="strain" format="ascii" type="Float32">
0.00264481 0.00264713 0.00264931 0.00265136 0.00265332 0.00265522 0.00265709 0.00265896 0.00266084 0.00266275 0.00266472 0.00266678 0.00266895 0.00267126 0.00267371 0.00267629 0.00267895 0.0026816 0.0026842 0.00268669 0.00268908 0.00269143 0.0026938 0.00269628 0.00269892 0.00270174 0.0027047 0.00270771 0.00271068 0.0027134 
</DataArray>
</CellData>
<Polys>
<DataArray Name="connectivity" format="ascii" type="Int32">

</DataArray>
<DataArray Name="offsets" format="ascii" type="Int32">

</DataArray>
</Polys>
<Lines>
<DataArray Name="connectivity" format="ascii" type="Int32">
30 29 29 26 26 25 25 24 24 21 21 19 19 18 18 17 17 15 15 23 23 13 13 11 11 10 10 20 20 9 9 22 22 8 8 28 28 7 7 6 6 5 5 12 12 4 4 3 3 27 27 2 2 14 14 1 1 16 16 0 
</DataArray>
<DataArray Name="offsets" format="ascii" type="Int32">
2 4 6 8 10 12 14 16 18 20 22 24 26 28 30 32 34 36 38 40 42 44 46 48 50 52 54 56 58 60 
</DataArray>
</Lines>
</Piece>
</PolyData>
</VTKFile>
