<?xml version="1.0"?>
<VTKFile byte_order="LittleEndian" type="PolyData" version="0.1">
<PolyData>
<Piece NumberOfLines="30" NumberOfPoints="31" NumberOfPolys="0" NumberOfStrips="0" NumberOfVerts="0">
<Points>
<DataArray NumberOfComponents="3" format="ascii" type="Float32">
0.0222053 0 186.882 -18.2099 0 174.07 -36.4765 0 161.308 -54.7771 0 148.594 -63.9403 0 142.256 -82.2925 0 129.617 -91.4816 0 123.317 -100.679 0 117.029 -119.101 0 104.492 -137.556 0 92.0057 -156.046 0 79.57 -165.304 0 73.3714 -73.112 0 135.93 -174.57 0 67.1856 -27.3389 0 167.683 -193.129 0 54.8527 -9.08954 0 180.47 -202.421 0 48.7057 -211.721 0 42.5717 -221.03 0 36.4508 -146.797 0 85.7814 -230.348 0 30.3429 -128.324 0 98.2426 -183.845 0 61.0127 -239.674 0 24.248 -249.009 0 18.1664 -258.352 0 12.0978 -45.6226 0 154.945 -109.886 0 110.754 -267.704 0 6.04229 -277.064 0 0 
</DataArray>
</Points>
<PointData>
<DataArray Name="velocity_mag" format="ascii" type="Float32">
0 0.00741348 0.0042943 0.00588473 0.00880709 0.0114689 0.00961557 0.0090364 0.0139096 0.0185311 0.0245784 0.0271465 0.0107245 0.0275649 0.00544266 0.026418 0.00923047 0.0254018 0.0207184 0.0176317 0.0205187 0.0175228 0.0161563 0.0260141 0.0146929 0.0110647 0.00808392 0.00447902 0.0119032 0.00566307 0 
</DataArray>
</PointData>
<CellData Normals="cell_normals" Scalars="cell_scalars">
<DataArray Name="tension" format="ascii" type="Float32">
4.21466e+06 4.21816e+06 4.22147e+06 4.22475e+06 4.22811e+06 4.23159e+06 4.23515e+06 4.23878e+06 4.24251e+06 4.24643e+06 4.2506e+06 4.25497e+06 4.25932e+06 4.26338e+06 4.26691e+06 4.26986e+06 4.27237e+06 4.27478e+06 4.27742e+06 4.28052e+06 4.28416e+06 4.2882e+06 4.29246e+06 4.29668e+06 4.30071e+06 4.30444e+06 4.3079e+06 4.31124e+06 4.31462e+06 4.31949e+06 
</DataArray>
<DataArray Name="strain" format="ascii" type="Float32">
0.0027518 0.00275409 0.00275625 0.00275839 0.00276058 0.00276286 0.00276518 0.00276755 0.00276998 0.00277254 0.00277527 0.00277812 0.00278096 0.00278361 0.00278592 0.00278784 0.00278948 0.00279105 0.00279278 0.00279481 0.00279718 0.00279982 0.0028026 0.00280536 0.00280798 0.00281042 0.00281268 0.00281486 0.00281707 0.00282025 
</DataArray>
</CellData>
<Polys>
<DataArray Name="connectivity" format="ascii" type="Int32">

</DataArray>
<DataArray Name="offsets" format="ascii" type="Int32">

</DataArray>
</Polys>
<Lines>
<DataArray Name="connectivity" format="ascii" type="Int32">
30 29 29 26 26 25 25 24 24 21 21 19 19 18 18 17 17 15 15 23 23 13 13 11 11 10 10 20 20 9 9 22 22 8 8 28 28 7 7 6 6 5 5 12 12 4 4 3 3 27 27 2 2 14 14 1 1 16 16 0 
</DataArray>
<DataArray Name="offsets" format="ascii" type="Int32">
2 4 6 8 10 12 14 16 18 20 22 24 26 28 30 32 34 36 38 40 42 44 46 48 50 52 54 56 58 60 
</DataArray>
</Lines>
</Piece>
</PolyData>
</VTKFile>
