<?xml version="1.0"?>
<VTKFile byte_order="LittleEndian" type="PolyData" version="0.1">
<PolyData>
<Piece NumberOfLines="30" NumberOfPoints="31" NumberOfPolys="0" NumberOfStrips="0" NumberOfVerts="0">
<Points>
<DataArray NumberOfComponents="3" format="ascii" type="Float32">
-0.0244452 0 186.882 -18.2427 0 174.054 -36.4964 0 161.277 -54.7858 0 148.552 -63.9439 0 142.208 -82.2873 0 129.561 -91.4724 0 123.257 -100.667 0 116.966 -119.082 0 104.425 -137.534 0 91.9373 -156.022 0 79.5027 -165.279 0 73.3056 -73.1111 0 135.878 -174.545 0 67.122 -27.3651 0 167.659 -193.105 0 54.7952 -9.12917 0 180.462 -202.398 0 48.6522 -211.7 0 42.5227 -221.011 0 36.4069 -146.774 0 85.7133 -230.331 0 30.3048 -128.304 0 98.1745 -183.821 0 60.9518 -239.66 0 24.2164 -248.997 0 18.1417 -258.344 0 12.0808 -45.6366 0 154.908 -109.87 0 110.689 -267.7 0 6.03355 -277.064 0 0 
</DataArray>
</Points>
<PointData>
<DataArray Name="velocity_mag" format="ascii" type="Float32">
0 0.00382873 0.0114241 0.0251293 0.0262287 0.0277358 0.0253063 0.0267336 0.0310946 0.0337906 0.0340473 0.0340765 0.0267274 0.0356228 0.00698978 0.0356919 0.00201544 0.0288294 0.025939 0.0231586 0.03451 0.0217667 0.0311478 0.0368753 0.0199529 0.0138076 0.00749124 0.0192048 0.0294177 0.00276211 0 
</DataArray>
</PointData>
<CellData Normals="cell_normals" Scalars="cell_scalars">
<DataArray Name="tension" format="ascii" type="Float32">
4.04332e+06 4.04668e+06 4.04967e+06 4.05237e+06 4.05494e+06 4.05754e+06 4.06034e+06 4.06349e+06 4.0671e+06 4.07123e+06 4.07585e+06 4.08082e+06 4.08594e+06 4.09101e+06 4.09584e+06 4.10036e+06 4.10464e+06 4.10882e+06 4.11312e+06 4.11767e+06 4.12253e+06 4.12763e+06 4.13279e+06 4.13781e+06 4.14252e+06 4.14686e+06 4.15088e+06 4.1547e+06 4.15847e+06 4.16246e+06 
</DataArray>
<DataArray Name="strain" format="ascii" type="Float32">
0.00263993 0.00264213 0.00264408 0.00264584 0.00264752 0.00264922 0.00265105 0.0026531 0.00265546 0.00265816 0.00266117 0.00266441 0.00266776 0.00267107 0.00267422 0.00267717 0.00267997 0.0026827 0.0026855 0.00268848 0.00269165 0.00269498 0.00269835 0.00270162 0.0027047 0.00270754 0.00271016 0.00271265 0.00271512 0.00271772 
</DataArray>
</CellData>
<Polys>
<DataArray Name="connectivity" format="ascii" type="Int32">

</DataArray>
<DataArray Name="offsets" format="ascii" type="Int32">

</DataArray>
</Polys>
<Lines>
<DataArray Name="connectivity" format="ascii" type="Int32">
30 29 29 26 26 25 25 24 24 21 21 19 19 18 18 17 17 15 15 23 23 13 13 11 11 10 10 20 20 9 9 22 22 8 8 28 28 7 7 6 6 5 5 12 12 4 4 3 3 27 27 2 2 14 14 1 1 16 16 0 
</DataArray>
<DataArray Name="offsets" format="ascii" type="Int32">
2 4 6 8 10 12 14 16 18 20 22 24 26 28 30 32 34 36 38 40 42 44 46 48 50 52 54 56 58 60 
</DataArray>
</Lines>
</Piece>
</PolyData>
</VTKFile>
