<?xml version="1.0"?>
<VTKFile byte_order="LittleEndian" type="PolyData" version="0.1">
<PolyData>
<Piece NumberOfLines="30" NumberOfPoints="31" NumberOfPolys="0" NumberOfStrips="0" NumberOfVerts="0">
<Points>
<DataArray NumberOfComponents="3" format="ascii" type="Float32">
-0.0131787 0 186.882 -18.236 0 174.06 -36.4943 0 161.289 -54.7877 0 148.568 -63.9475 0 142.227 -82.2934 0 129.583 -91.4795 0 123.279 -100.674 0 116.989 -119.091 0 104.448 -137.543 0 91.9596 -156.031 0 79.524 -165.288 0 73.3261 -73.1161 0 135.898 -174.554 0 67.1417 -27.3608 0 167.668 -193.113 0 54.8129 -9.12018 0 180.465 -202.406 0 48.6687 -211.707 0 42.5379 -221.018 0 36.4205 -146.783 0 85.7352 -230.337 0 30.3167 -128.313 0 98.1972 -183.829 0 60.9706 -239.665 0 24.2263 -249.001 0 18.1494 -258.347 0 12.0861 -45.6366 0 154.922 -109.878 0 110.712 -267.701 0 6.03626 -277.064 0 0 
</DataArray>
</Points>
<PointData>
<DataArray Name="velocity_mag" format="ascii" type="Float32">
0 0.0237936 0.0455982 0.0625418 0.0674659 0.0817091 0.0870288 0.0894211 0.0997295 0.103154 0.106009 0.102196 0.0743927 0.0983678 0.0328337 0.0865788 0.0216364 0.0772895 0.0695893 0.0620084 0.104845 0.0502514 0.103016 0.0933934 0.0427447 0.0329281 0.020992 0.0567338 0.094675 0.0120558 0 
</DataArray>
</PointData>
<CellData Normals="cell_normals" Scalars="cell_scalars">
<DataArray Name="tension" format="ascii" type="Float32">
4.08287e+06 4.08636e+06 4.08979e+06 4.09349e+06 4.09767e+06 4.10226e+06 4.10696e+06 4.11143e+06 4.11549e+06 4.1192e+06 4.12281e+06 4.12657e+06 4.13056e+06 4.1347e+06 4.13882e+06 4.1428e+06 4.14664e+06 4.15037e+06 4.15396e+06 4.15731e+06 4.16029e+06 4.16295e+06 4.16548e+06 4.16821e+06 4.17142e+06 4.1752e+06 4.17949e+06 4.18404e+06 4.18865e+06 4.19059e+06 
</DataArray>
<DataArray Name="strain" format="ascii" type="Float32">
0.00266576 0.00266803 0.00267027 0.00267269 0.00267542 0.00267841 0.00268148 0.0026844 0.00268705 0.00268948 0.00269183 0.00269429 0.00269689 0.0026996 0.00270229 0.00270489 0.00270739 0.00270983 0.00271217 0.00271435 0.0027163 0.00271804 0.00271969 0.00272148 0.00272357 0.00272604 0.00272884 0.00273181 0.00273482 0.00273609 
</DataArray>
</CellData>
<Polys>
<DataArray Name="connectivity" format="ascii" type="Int32">

</DataArray>
<DataArray Name="offsets" format="ascii" type="Int32">

</DataArray>
</Polys>
<Lines>
<DataArray Name="connectivity" format="ascii" type="Int32">
30 29 29 26 26 25 25 24 24 21 21 19 19 18 18 17 17 15 15 23 23 13 13 11 11 10 10 20 20 9 9 22 22 8 8 28 28 7 7 6 6 5 5 12 12 4 4 3 3 27 27 2 2 14 14 1 1 16 16 0 
</DataArray>
<DataArray Name="offsets" format="ascii" type="Int32">
2 4 6 8 10 12 14 16 18 20 22 24 26 28 30 32 34 36 38 40 42 44 46 48 50 52 54 56 58 60 
</DataArray>
</Lines>
</Piece>
</PolyData>
</VTKFile>
