<?xml version="1.0"?>
<VTKFile byte_order="LittleEndian" type="PolyData" version="0.1">
<PolyData>
<Piece NumberOfLines="30" NumberOfPoints="31" NumberOfPolys="0" NumberOfStrips="0" NumberOfVerts="0">
<Points>
<DataArray NumberOfComponents="3" format="ascii" type="Float32">
0.0169737 0 186.882 -18.2191 0 174.076 -36.4894 0 161.319 -54.7937 0 148.612 -63.9585 0 142.276 -82.3135 0 129.642 -91.5035 0 123.343 -100.702 0 117.057 -119.124 0 104.521 -137.579 0 92.0343 -156.068 0 79.5974 -165.324 0 73.3977 -73.1318 0 135.953 -174.59 0 67.2106 -27.35 0 167.692 -193.145 0 54.8745 -9.09681 0 180.473 -202.436 0 48.7255 -211.734 0 42.5893 -221.042 0 36.4661 -146.819 0 85.8096 -230.358 0 30.356 -128.347 0 98.2714 -183.863 0 61.0362 -239.682 0 24.2588 -249.015 0 18.1747 -258.356 0 12.1035 -45.6374 0 154.959 -109.909 0 110.783 -267.706 0 6.0452 -277.064 0 0 
</DataArray>
</Points>
<PointData>
<DataArray Name="velocity_mag" format="ascii" type="Float32">
0 0.0307157 0.0314849 0.0275904 0.0255249 0.0238837 0.0236696 0.0227523 0.0196619 0.0169212 0.0156129 0.0134658 0.024237 0.0124568 0.0317321 0.0108429 0.0263698 0.0116542 0.0115003 0.0103283 0.0167006 0.00798977 0.0178411 0.0114809 0.00739965 0.00594222 0.00471627 0.0302734 0.021363 0.00259416 0 
</DataArray>
</PointData>
<CellData Normals="cell_normals" Scalars="cell_scalars">
<DataArray Name="tension" format="ascii" type="Float32">
4.1865e+06 4.18993e+06 4.19303e+06 4.19593e+06 4.19874e+06 4.2016e+06 4.20462e+06 4.20790e+06 4.21154e+06 4.21558e+06 4.22003e+06 4.22481e+06 4.22978e+06 4.23473e+06 4.23947e+06 4.24389e+06 4.24802e+06 4.25202e+06 4.25609e+06 4.26042e+06 4.26507e+06 4.26997e+06 4.27496e+06 4.27984e+06 4.28446e+06 4.28873e+06 4.29271e+06 4.29649e+06 4.30028e+06 4.30204e+06 
</DataArray>
<DataArray Name="strain" format="ascii" type="Float32">
0.00273341 0.00273565 0.00273768 0.00273957 0.00274141 0.00274328 0.00274525 0.00274739 0.00274976 0.0027524 0.00275531 0.00275843 0.00276168 0.00276491 0.002768 0.00277089 0.00277358 0.00277619 0.00277885 0.00278168 0.00278472 0.00278792 0.00279118 0.00279436 0.00279737 0.00280016 0.00280276 0.00280523 0.0028077 0.00280886 
</DataArray>
</CellData>
<Polys>
<DataArray Name="connectivity" format="ascii" type="Int32">

</DataArray>
<DataArray Name="offsets" format="ascii" type="Int32">

</DataArray>
</Polys>
<Lines>
<DataArray Name="connectivity" format="ascii" type="Int32">
30 29 29 26 26 25 25 24 24 21 21 19 19 18 18 17 17 15 15 23 23 13 13 11 11 10 10 20 20 9 9 22 22 8 8 28 28 7 7 6 6 5 5 12 12 4 4 3 3 27 27 2 2 14 14 1 1 16 16 0 
</DataArray>
<DataArray Name="offsets" format="ascii" type="Int32">
2 4 6 8 10 12 14 16 18 20 22 24 26 28 30 32 34 36 38 40 42 44 46 48 50 52 54 56 58 60 
</DataArray>
</Lines>
</Piece>
</PolyData>
</VTKFile>
