<?xml version="1.0"?>
<VTKFile byte_order="LittleEndian" type="PolyData" version="0.1">
<PolyData>
<Piece NumberOfLines="30" NumberOfPoints="31" NumberOfPolys="0" NumberOfStrips="0" NumberOfVerts="0">
<Points>
<DataArray NumberOfComponents="3" format="ascii" type="Float32">
-0.00480998 0 186.882 -18.2345 0 174.069 -36.4989 0 161.306 -54.7976 0 148.592 -63.96 0 142.254 -82.3104 0 129.615 -91.4986 0 123.315 -100.695 0 117.027 -119.115 0 104.49 -137.568 0 92.0028 -156.057 0 79.5673 -165.314 0 73.3689 -73.1309 0 135.929 -174.579 0 67.1833 -27.3624 0 167.681 -193.136 0 54.8506 -9.1153 0 180.469 -202.427 0 48.7035 -211.726 0 42.5694 -221.034 0 36.4483 -146.808 0 85.7786 -230.351 0 30.3404 -128.337 0 98.2398 -183.853 0 61.0106 -239.677 0 24.2458 -249.01 0 18.1643 -258.353 0 12.0962 -45.6439 0 154.943 -109.901 0 110.752 -267.704 0 6.04138 -277.064 0 0 
</DataArray>
</Points>
<PointData>
<DataArray Name="velocity_mag" format="ascii" type="Float32">
0 0.019208 0.0128577 0.0118989 0.0131169 0.0146862 0.0197003 0.0214809 0.0245249 0.0336571 0.037265 0.0363262 0.0128901 0.0379257 0.0151256 0.0358347 0.0228967 0.0309728 0.0281738 0.0254706 0.0372889 0.0207931 0.0289031 0.0367747 0.0201664 0.0215398 0.0161656 0.0116386 0.022194 0.00883538 0 
</DataArray>
</PointData>
<CellData Normals="cell_normals" Scalars="cell_scalars">
<DataArray Name="tension" format="ascii" type="Float32">
4.10402e+06 4.10776e+06 4.11152e+06 4.11545e+06 4.11962e+06 4.12404e+06 4.12863e+06 4.13323e+06 4.13773e+06 4.14208e+06 4.14631e+06 4.1505e+06 4.15471e+06 4.15897e+06 4.16326e+06 4.16749e+06 4.17159e+06 4.17547e+06 4.17909e+06 4.18246e+06 4.18566e+06 4.18881e+06 4.19213e+06 4.19584e+06 4.2001e+06 4.20496e+06 4.21029e+06 4.21581e+06 4.2211e+06 4.22873e+06 
</DataArray>
<DataArray Name="strain" format="ascii" type="Float32">
0.00267956 0.002682 0.00268446 0.00268702 0.00268975 0.00269264 0.00269563 0.00269863 0.00270157 0.00270441 0.00270718 0.00270991 0.00271266 0.00271544 0.00271824 0.002721 0.00272368 0.00272621 0.00272858 0.00273078 0.00273287 0.00273493 0.00273709 0.00273952 0.0027423 0.00274547 0.00274895 0.00275255 0.002756 0.00276099 
</DataArray>
</CellData>
<Polys>
<DataArray Name="connectivity" format="ascii" type="Int32">

</DataArray>
<DataArray Name="offsets" format="ascii" type="Int32">

</DataArray>
</Polys>
<Lines>
<DataArray Name="connectivity" format="ascii" type="Int32">
30 29 29 26 26 25 25 24 24 21 21 19 19 18 18 17 17 15 15 23 23 13 13 11 11 10 10 20 20 9 9 22 22 8 8 28 28 7 7 6 6 5 5 12 12 4 4 3 3 27 27 2 2 14 14 1 1 16 16 0 
</DataArray>
<DataArray Name="offsets" format="ascii" type="Int32">
2 4 6 8 10 12 14 16 18 20 22 24 26 28 30 32 34 36 38 40 42 44 46 48 50 52 54 56 58 60 
</DataArray>
</Lines>
</Piece>
</PolyData>
</VTKFile>
