<?xml version="1.0"?>
<VTKFile byte_order="LittleEndian" type="PolyData" version="0.1">
<PolyData>
<Piece NumberOfLines="30" NumberOfPoints="31" NumberOfPolys="0" NumberOfStrips="0" NumberOfVerts="0">
<Points>
<DataArray NumberOfComponents="3" format="ascii" type="Float32">
0.018631 0 186.882 -18.2172 0 174.076 -36.4871 0 161.318 -54.7908 0 148.61 -63.9552 0 142.274 -82.3096 0 129.639 -91.4995 0 123.34 -100.698 0 117.053 -119.119 0 104.517 -137.575 0 92.03 -156.064 0 79.5936 -165.321 0 73.3943 -73.1282 0 135.95 -174.586 0 67.2076 -27.3479 0 167.691 -193.143 0 54.872 -9.09496 0 180.473 -202.433 0 48.7231 -211.732 0 42.5872 -221.04 0 36.4641 -146.815 0 85.8056 -230.356 0 30.354 -128.343 0 98.267 -183.86 0 61.0335 -239.681 0 24.257 -249.014 0 18.173 -258.355 0 12.1021 -45.6348 0 154.958 -109.904 0 110.779 -267.705 0 6.04449 -277.064 0 0 
</DataArray>
</Points>
<PointData>
<DataArray Name="velocity_mag" format="ascii" type="Float32">
0 0.0186521 0.0239457 0.0259528 0.0264639 0.0277741 0.0243358 0.0243181 0.0256828 0.0255263 0.0167312 0.0162608 0.0274786 0.015191 0.0198186 0.0130625 0.0188581 0.00927764 0.0066541 0.00523005 0.0220206 0.00237055 0.026185 0.0159566 0.00521679 0.00680134 0.00363232 0.0249957 0.0265987 0.0016015 0 
</DataArray>
</PointData>
<CellData Normals="cell_normals" Scalars="cell_scalars">
<DataArray Name="tension" format="ascii" type="Float32">
4.19946e+06 4.20305e+06 4.20642e+06 4.20961e+06 4.21267e+06 4.21571e+06 4.21882e+06 4.22208e+06 4.22552e+06 4.22911e+06 4.23278e+06 4.23643e+06 4.24001e+06 4.24349e+06 4.24687e+06 4.25017e+06 4.2534e+06 4.25658e+06 4.25975e+06 4.26296e+06 4.26632e+06 4.26992e+06 4.27383e+06 4.27808e+06 4.2826e+06 4.28728e+06 4.29198e+06 4.29659e+06 4.30108e+06 4.30345e+06 
</DataArray>
<DataArray Name="strain" format="ascii" type="Float32">
0.00274188 0.00274422 0.00274642 0.0027485 0.00275051 0.00275249 0.00275451 0.00275664 0.00275889 0.00276124 0.00276363 0.00276602 0.00276836 0.00277063 0.00277283 0.00277499 0.00277709 0.00277917 0.00278124 0.00278334 0.00278553 0.00278788 0.00279044 0.00279321 0.00279616 0.00279921 0.00280229 0.0028053 0.00280822 0.00280977 
</DataArray>
</CellData>
<Polys>
<DataArray Name="connectivity" format="ascii" type="Int32">

</DataArray>
<DataArray Name="offsets" format="ascii" type="Int32">

</DataArray>
</Polys>
<Lines>
<DataArray Name="connectivity" format="ascii" type="Int32">
30 29 29 26 26 25 25 24 24 21 21 19 19 18 18 17 17 15 15 23 23 13 13 11 11 10 10 20 20 9 9 22 22 8 8 28 28 7 7 6 6 5 5 12 12 4 4 3 3 27 27 2 2 14 14 1 1 16 16 0 
</DataArray>
<DataArray Name="offsets" format="ascii" type="Int32">
2 4 6 8 10 12 14 16 18 20 22 24 26 28 30 32 34 36 38 40 42 44 46 48 50 52 54 56 58 60 
</DataArray>
</Lines>
</Piece>
</PolyData>
</VTKFile>
