<?xml version="1.0"?>
<VTKFile byte_order="LittleEndian" type="PolyData" version="0.1">
<PolyData>
<Piece NumberOfLines="30" NumberOfPoints="31" NumberOfPolys="0" NumberOfStrips="0" NumberOfVerts="0">
<Points>
<DataArray NumberOfComponents="3" format="ascii" type="Float32">
-0.024236 0 186.882 -18.2431 0 174.055 -36.4976 0 161.28 -54.7875 0 148.555 -63.9458 0 142.212 -82.2895 0 129.565 -91.4749 0 123.262 -100.669 0 116.971 -119.085 0 104.43 -137.536 0 91.9415 -156.024 0 79.5066 -165.281 0 73.3095 -73.1131 0 135.882 -174.547 0 67.1259 -27.3659 0 167.661 -193.107 0 54.7993 -9.1292 0 180.462 -202.4 0 48.6563 -211.702 0 42.5267 -221.013 0 36.4107 -146.775 0 85.7173 -230.333 0 30.3083 -128.306 0 98.1791 -183.823 0 60.9559 -239.661 0 24.2193 -248.999 0 18.144 -258.345 0 12.0823 -45.6381 0 154.911 -109.873 0 110.694 -267.7 0 6.03437 -277.064 0 0 
</DataArray>
</Points>
<PointData>
<DataArray Name="velocity_mag" format="ascii" type="Float32">
0 0.0110782 0.0284544 0.0393007 0.0461237 0.050093 0.0515558 0.0526115 0.0576215 0.0592055 0.0521744 0.0494242 0.0498373 0.0479173 0.0187277 0.0392737 0.00572293 0.0402733 0.0384025 0.0344741 0.0547273 0.0307314 0.0619702 0.043204 0.0267029 0.0212958 0.0151979 0.0341936 0.055195 0.00647434 0 
</DataArray>
</PointData>
<CellData Normals="cell_normals" Scalars="cell_scalars">
<DataArray Name="tension" format="ascii" type="Float32">
4.0511e+06 4.05455e+06 4.0577e+06 4.06064e+06 4.06349e+06 4.06633e+06 4.06921e+06 4.07217e+06 4.07521e+06 4.07833e+06 4.08152e+06 4.08481e+06 4.08824e+06 4.09182e+06 4.09555e+06 4.09941e+06 4.10329e+06 4.10708e+06 4.11069e+06 4.11407e+06 4.1173e+06 4.12052e+06 4.12393e+06 4.12771e+06 4.13195e+06 4.13661e+06 4.14155e+06 4.14655e+06 4.15139e+06 4.15629e+06 
</DataArray>
<DataArray Name="strain" format="ascii" type="Float32">
0.00264501 0.00264727 0.00264932 0.00265124 0.0026531 0.00265495 0.00265684 0.00265877 0.00266076 0.00266279 0.00266487 0.00266702 0.00266926 0.0026716 0.00267404 0.00267655 0.00267909 0.00268156 0.00268392 0.00268613 0.00268824 0.00269034 0.00269257 0.00269503 0.0026978 0.00270084 0.00270407 0.00270733 0.00271049 0.00271369 
</DataArray>
</CellData>
<Polys>
<DataArray Name="connectivity" format="ascii" type="Int32">

</DataArray>
<DataArray Name="offsets" format="ascii" type="Int32">

</DataArray>
</Polys>
<Lines>
<DataArray Name="connectivity" format="ascii" type="Int32">
30 29 29 26 26 25 25 24 24 21 21 19 19 18 18 17 17 15 15 23 23 13 13 11 11 10 10 20 20 9 9 22 22 8 8 28 28 7 7 6 6 5 5 12 12 4 4 3 3 27 27 2 2 14 14 1 1 16 16 0 
</DataArray>
<DataArray Name="offsets" format="ascii" type="Int32">
2 4 6 8 10 12 14 16 18 20 22 24 26 28 30 32 34 36 38 40 42 44 46 48 50 52 54 56 58 60 
</DataArray>
</Lines>
</Piece>
</PolyData>
</VTKFile>
