<?xml version="1.0"?>
<VTKFile byte_order="LittleEndian" type="PolyData" version="0.1">
<PolyData>
<Piece NumberOfLines="30" NumberOfPoints="31" NumberOfPolys="0" NumberOfStrips="0" NumberOfVerts="0">
<Points>
<DataArray NumberOfComponents="3" format="ascii" type="Float32">
0.019754 0 186.882 -18.2137 0 174.072 -36.481 0 161.311 -54.7823 0 148.598 -63.9456 0 142.261 -82.2978 0 129.622 -91.4868 0 123.322 -100.684 0 117.034 -119.105 0 104.496 -137.56 0 92.0095 -156.05 0 79.5734 -165.307 0 73.3745 -73.1174 0 135.935 -174.573 0 67.1884 -27.3431 0 167.685 -193.131 0 54.855 -9.09271 0 180.471 -202.423 0 48.7078 -211.723 0 42.5736 -221.032 0 36.4525 -146.801 0 85.785 -230.349 0 30.3443 -128.329 0 98.2467 -183.848 0 61.0153 -239.675 0 24.2491 -249.01 0 18.167 -258.353 0 12.0981 -45.6274 0 154.949 -109.89 0 110.759 -267.704 0 6.04242 -277.064 0 0 
</DataArray>
</Points>
<PointData>
<DataArray Name="velocity_mag" format="ascii" type="Float32">
0 0.0157051 0.0165695 0.0194052 0.0193293 0.0136873 0.00914042 0.0121163 0.0132046 0.0166695 0.0202613 0.0176616 0.0173869 0.0147666 0.0152201 0.0109255 0.016682 0.0099725 0.0101106 0.0104887 0.0181749 0.0109757 0.0142034 0.0136859 0.0089645 0.00772174 0.00579421 0.0184281 0.0131472 0.00303193 0 
</DataArray>
</PointData>
<CellData Normals="cell_normals" Scalars="cell_scalars">
<DataArray Name="tension" format="ascii" type="Float32">
4.20286e+06 4.2066e+06 4.21027e+06 4.21389e+06 4.21749e+06 4.22109e+06 4.22475e+06 4.22849e+06 4.23231e+06 4.2362e+06 4.2401e+06 4.24395e+06 4.24772e+06 4.25135e+06 4.25486e+06 4.25826e+06 4.26156e+06 4.26481e+06 4.26805e+06 4.27134e+06 4.27475e+06 4.27837e+06 4.28224e+06 4.28637e+06 4.29075e+06 4.29528e+06 4.29987e+06 4.30442e+06 4.30882e+06 4.31477e+06 
</DataArray>
<DataArray Name="strain" format="ascii" type="Float32">
0.0027441 0.00274654 0.00274894 0.0027513 0.00275365 0.002756 0.00275839 0.00276083 0.00276333 0.00276587 0.00276841 0.00277093 0.00277338 0.00277576 0.00277805 0.00278027 0.00278242 0.00278454 0.00278666 0.00278881 0.00279104 0.0027934 0.00279592 0.00279863 0.00280148 0.00280444 0.00280743 0.00281041 0.00281328 0.00281716 
</DataArray>
</CellData>
<Polys>
<DataArray Name="connectivity" format="ascii" type="Int32">

</DataArray>
<DataArray Name="offsets" format="ascii" type="Int32">

</DataArray>
</Polys>
<Lines>
<DataArray Name="connectivity" format="ascii" type="Int32">
30 29 29 26 26 25 25 24 24 21 21 19 19 18 18 17 17 15 15 23 23 13 13 11 11 10 10 20 20 9 9 22 22 8 8 28 28 7 7 6 6 5 5 12 12 4 4 3 3 27 27 2 2 14 14 1 1 16 16 0 
</DataArray>
<DataArray Name="offsets" format="ascii" type="Int32">
2 4 6 8 10 12 14 16 18 20 22 24 26 28 30 32 34 36 38 40 42 44 46 48 50 52 54 56 58 60 
</DataArray>
</Lines>
</Piece>
</PolyData>
</VTKFile>
