<?xml version="1.0"?>
<VTKFile byte_order="LittleEndian" type="PolyData" version="0.1">
<PolyData>
<Piece NumberOfLines="30" NumberOfPoints="31" NumberOfPolys="0" NumberOfStrips="0" NumberOfVerts="0">
<Points>
<DataArray NumberOfComponents="3" format="ascii" type="Float32">
-66.5517 0 170.066 -93.2672 0 155.817 -146.872 0 127.647 -173.761 0 113.728 -187.227 0 106.81 -160.309 0 120.673 -200.707 0 99.921 -214.201 0 93.0599 -0.0129684 0 206.157 -39.8933 0 184.423 -227.71 0 86.2271 -254.771 0 72.6468 -268.323 0 65.8995 -281.888 0 59.1808 -133.449 0 134.648 -295.468 0 52.4906 -53.2154 0 177.232 -322.67 0 39.1963 -13.2922 0 198.886 -241.234 0 79.4226 -309.062 0 45.8291 -336.292 0 32.592 -26.5856 0 191.642 -79.9023 0 162.928 -106.647 0 148.733 -349.927 0 26.0163 -120.041 0 141.676 -363.577 0 19.4693 -377.24 0 12.951 -390.916 0 6.46121 -404.606 0 0 
</DataArray>
</Points>
<PointData>
<DataArray Name="velocity_mag" format="ascii" type="Float32">
0.0432243 0.0537377 0.057226 0.0521411 0.0470817 0.0572749 0.0445121 0.0432348 0 0.0370387 0.0421584 0.0385623 0.0368917 0.0371906 0.0587757 0.036739 0.0403558 0.0315026 0.0288319 0.039744 0.0332847 0.0322227 0.0333097 0.0490725 0.0569197 0.0280345 0.0589578 0.0217028 0.0162407 0.0101197 0 
</DataArray>
</PointData>
<CellData Normals="cell_normals" Scalars="cell_scalars">
<DataArray Name="tension" format="ascii" type="Float32">
4.99799e+06 5.00297e+06 5.00788e+06 5.01252e+06 5.01676e+06 5.02064e+06 5.02435e+06 5.02819e+06 5.03241e+06 5.03718e+06 5.04254e+06 5.04842e+06 5.05474e+06 5.06138e+06 5.06821e+06 5.07506e+06 5.08174e+06 5.08808e+06 5.09396e+06 5.09939e+06 5.10455e+06 5.10968e+06 5.11507e+06 5.1209e+06 5.12725e+06 5.13404e+06 5.14105e+06 5.148e+06 5.15477e+06 5.15656e+06 
</DataArray>
<DataArray Name="strain" format="ascii" type="Float32">
0.00269433 0.00269702 0.00269966 0.00270217 0.00270445 0.00270654 0.00270855 0.00271061 0.00271289 0.00271546 0.00271835 0.00272152 0.00272493 0.00272851 0.00273219 0.00273588 0.00273948 0.0027429 0.00274607 0.002749 0.00275178 0.00275455 0.00275745 0.00276059 0.00276402 0.00276767 0.00277145 0.0027752 0.00277885 0.00277982 
</DataArray>
</CellData>
<Polys>
<DataArray Name="connectivity" format="ascii" type="Int32">

</DataArray>
<DataArray Name="offsets" format="ascii" type="Int32">

</DataArray>
</Polys>
<Lines>
<DataArray Name="connectivity" format="ascii" type="Int32">
30 29 29 28 28 27 27 25 25 21 21 17 17 20 20 15 15 13 13 12 12 11 11 19 19 10 10 7 7 6 6 4 4 3 3 5 5 2 2 14 14 26 26 24 24 1 1 23 23 0 0 16 16 9 9 22 22 18 18 8 
</DataArray>
<DataArray Name="offsets" format="ascii" type="Int32">
2 4 6 8 10 12 14 16 18 20 22 24 26 28 30 32 34 36 38 40 42 44 46 48 50 52 54 56 58 60 
</DataArray>
</Lines>
</Piece>
</PolyData>
</VTKFile>
