<?xml version="1.0"?>
<VTKFile byte_order="LittleEndian" type="PolyData" version="0.1">
<PolyData>
<Piece NumberOfLines="30" NumberOfPoints="31" NumberOfPolys="0" NumberOfStrips="0" NumberOfVerts="0">
<Points>
<DataArray NumberOfComponents="3" format="ascii" type="Float32">
-66.5543 0 170.131 -93.2826 0 155.901 -146.906 0 127.758 -173.8 0 113.846 -187.268 0 106.93 -160.346 0 120.788 -200.75 0 100.041 -214.245 0 93.18 0.0246802 0 206.157 -39.8814 0 184.464 -227.754 0 86.3456 -254.814 0 72.7586 -268.364 0 66.006 -281.927 0 59.2809 -133.479 0 134.754 -295.505 0 52.5834 -53.211 0 177.285 -322.7 0 39.2712 -13.2635 0 198.901 -241.277 0 79.5384 -309.096 0 45.9135 -336.318 0 32.6565 -26.5655 0 191.67 -79.9115 0 163.003 -106.668 0 148.825 -349.949 0 26.0694 -120.066 0 141.776 -363.593 0 19.5103 -377.251 0 12.9791 -390.922 0 6.47568 -404.606 0 0 
</DataArray>
</Points>
<PointData>
<DataArray Name="velocity_mag" format="ascii" type="Float32">
0.0327238 0.0390425 0.0367122 0.0317879 0.0321369 0.0349954 0.0342026 0.0349227 0 0.0237731 0.035851 0.0286868 0.0299915 0.0301858 0.039016 0.0289941 0.0280893 0.0255578 0.0173346 0.0325824 0.0262102 0.0226093 0.020595 0.0346789 0.0413758 0.0219243 0.0419086 0.0171149 0.0119131 0.00584384 0 
</DataArray>
</PointData>
<CellData Normals="cell_normals" Scalars="cell_scalars">
<DataArray Name="tension" format="ascii" type="Float32">
5.10494e+06 5.11038e+06 5.11631e+06 5.12266e+06 5.12925e+06 5.13584e+06 5.14214e+06 5.14794e+06 5.15313e+06 5.15785e+06 5.16234e+06 5.16694e+06 5.17191e+06 5.17735e+06 5.18318e+06 5.18919e+06 5.19516e+06 5.20096e+06 5.20659e+06 5.21218e+06 5.21791e+06 5.22392e+06 5.23029e+06 5.23697e+06 5.24384e+06 5.25076e+06 5.25758e+06 5.26417e+06 5.27037e+06 5.27875e+06 
</DataArray>
<DataArray Name="strain" format="ascii" type="Float32">
0.00275199 0.00275492 0.00275812 0.00276154 0.00276509 0.00276865 0.00277205 0.00277517 0.00277797 0.00278051 0.00278293 0.00278541 0.00278809 0.00279103 0.00279417 0.00279741 0.00280063 0.00280375 0.00280679 0.0028098 0.00281289 0.00281613 0.00281956 0.00282316 0.00282687 0.0028306 0.00283427 0.00283783 0.00284117 0.00284569 
</DataArray>
</CellData>
<Polys>
<DataArray Name="connectivity" format="ascii" type="Int32">

</DataArray>
<DataArray Name="offsets" format="ascii" type="Int32">

</DataArray>
</Polys>
<Lines>
<DataArray Name="connectivity" format="ascii" type="Int32">
30 29 29 28 28 27 27 25 25 21 21 17 17 20 20 15 15 13 13 12 12 11 11 19 19 10 10 7 7 6 6 4 4 3 3 5 5 2 2 14 14 26 26 24 24 1 1 23 23 0 0 16 16 9 9 22 22 18 18 8 
</DataArray>
<DataArray Name="offsets" format="ascii" type="Int32">
2 4 6 8 10 12 14 16 18 20 22 24 26 28 30 32 34 36 38 40 42 44 46 48 50 52 54 56 58 60 
</DataArray>
</Lines>
</Piece>
</PolyData>
</VTKFile>
