<?xml version="1.0"?>
<VTKFile byte_order="LittleEndian" type="PolyData" version="0.1">
<PolyData>
<Piece NumberOfLines="30" NumberOfPoints="31" NumberOfPolys="0" NumberOfStrips="0" NumberOfVerts="0">
<Points>
<DataArray NumberOfComponents="3" format="ascii" type="Float32">
-66.5525 0 170.132 -93.2815 0 155.903 -146.906 0 127.762 -173.801 0 113.852 -187.27 0 106.937 -160.347 0 120.794 -200.752 0 100.049 -214.248 0 93.188 0.027054 0 206.157 -39.879 0 184.464 -227.757 0 86.3538 -254.817 0 72.7665 -268.367 0 66.0138 -281.931 0 59.2883 -133.479 0 134.758 -295.508 0 52.5904 -53.2088 0 177.285 -322.702 0 39.2769 -13.261 0 198.9 -241.28 0 79.5466 -309.098 0 45.9199 -336.32 0 32.6615 -26.563 0 191.67 -79.9101 0 163.004 -106.667 0 148.828 -349.951 0 26.0738 -120.066 0 141.78 -363.595 0 19.5137 -377.252 0 12.9814 -390.922 0 6.47681 -404.606 0 0 
</DataArray>
</Points>
<PointData>
<DataArray Name="velocity_mag" format="ascii" type="Float32">
0.0172874 0.020108 0.0306143 0.038951 0.0411486 0.0368567 0.0453552 0.0494272 0 0.0145746 0.0511699 0.0475618 0.0438533 0.0390987 0.0253062 0.0341147 0.0157621 0.0247938 0.011541 0.0502035 0.0295417 0.0205792 0.0132333 0.0196883 0.0232984 0.0166491 0.0253378 0.0122078 0.00859426 0.00383862 0 
</DataArray>
</PointData>
<CellData Normals="cell_normals" Scalars="cell_scalars">
<DataArray Name="tension" format="ascii" type="Float32">
5.11390e+06 5.11841e+06 5.12313e+06 5.12863e+06 5.1348e+06 5.14099e+06 5.14678e+06 5.15246e+06 5.1587e+06 5.16582e+06 5.1734e+06 5.18064e+06 5.18702e+06 5.19265e+06 5.19795e+06 5.20317e+06 5.20818e+06 5.21275e+06 5.21680e+06 5.22059e+06 5.22462e+06 5.22948e+06 5.23555e+06 5.24267e+06 5.25002e+06 5.25653e+06 5.26157e+06 5.26539e+06 5.26886e+06 5.27467e+06 
</DataArray>
<DataArray Name="strain" format="ascii" type="Float32">
0.00275682 0.00275925 0.0027618 0.00276476 0.00276809 0.00277142 0.00277455 0.00277761 0.00278097 0.00278481 0.0027889 0.0027928 0.00279624 0.00279927 0.00280213 0.00280494 0.00280765 0.00281011 0.00281229 0.00281433 0.00281651 0.00281913 0.0028224 0.00282624 0.0028302 0.00283371 0.00283642 0.00283849 0.00284036 0.00284349 
</DataArray>
</CellData>
<Polys>
<DataArray Name="connectivity" format="ascii" type="Int32">

</DataArray>
<DataArray Name="offsets" format="ascii" type="Int32">

</DataArray>
</Polys>
<Lines>
<DataArray Name="connectivity" format="ascii" type="Int32">
30 29 29 28 28 27 27 25 25 21 21 17 17 20 20 15 15 13 13 12 12 11 11 19 19 10 10 7 7 6 6 4 4 3 3 5 5 2 2 14 14 26 26 24 24 1 1 23 23 0 0 16 16 9 9 22 22 18 18 8 
</DataArray>
<DataArray Name="offsets" format="ascii" type="Int32">
2 4 6 8 10 12 14 16 18 20 22 24 26 28 30 32 34 36 38 40 42 44 46 48 50 52 54 56 58 60 
</DataArray>
</Lines>
</Piece>
</PolyData>
</VTKFile>
