<?xml version="1.0"?>
<VTKFile byte_order="LittleEndian" type="PolyData" version="0.1">
<PolyData>
<Piece NumberOfLines="30" NumberOfPoints="31" NumberOfPolys="0" NumberOfStrips="0" NumberOfVerts="0">
<Points>
<DataArray NumberOfComponents="3" format="ascii" type="Float32">
-66.5544 0 170.049 -93.266 0 155.793 -146.863 0 127.613 -173.749 0 113.691 -187.214 0 106.772 -160.299 0 120.637 -200.694 0 99.882 -214.188 0 93.0207 -0.027849 0 206.157 -39.9004 0 184.412 -227.696 0 86.1881 -254.757 0 72.6095 -268.309 0 65.8636 -281.875 0 59.1467 -133.442 0 134.616 -295.456 0 52.4587 -53.2202 0 177.217 -322.66 0 39.1701 -13.3042 0 198.882 -241.219 0 79.3844 -309.051 0 45.7999 -336.283 0 32.5692 -26.595 0 191.633 -79.903 0 162.908 -106.643 0 148.707 -349.92 0 25.9976 -120.036 0 141.648 -363.571 0 19.4548 -377.236 0 12.941 -390.914 0 6.45609 -404.606 0 0 
</DataArray>
</Points>
<PointData>
<DataArray Name="velocity_mag" format="ascii" type="Float32">
0.0405337 0.0448641 0.0624411 0.0676711 0.072044 0.063474 0.0731917 0.0729999 0 0.0311281 0.0726686 0.0688426 0.0646871 0.0611201 0.0572553 0.0543708 0.0360287 0.0418495 0.0173961 0.0738153 0.0479849 0.0367589 0.0258121 0.0436822 0.045874 0.0300787 0.0513274 0.0243567 0.0177052 0.00882386 0 
</DataArray>
</PointData>
<CellData Normals="cell_normals" Scalars="cell_scalars">
<DataArray Name="tension" format="ascii" type="Float32">
4.95619e+06 4.96045e+06 4.96445e+06 4.96873e+06 4.97365e+06 4.97922e+06 4.98513e+06 4.99091e+06 4.99624e+06 5.00098e+06 5.00521e+06 5.00907e+06 5.01272e+06 5.01633e+06 5.02009e+06 5.02426e+06 5.02904e+06 5.03456e+06 5.04069e+06 5.04716e+06 5.05357e+06 5.05961e+06 5.06514e+06 5.07025e+06 5.07517e+06 5.08019e+06 5.08549e+06 5.09109e+06 5.09684e+06 5.10372e+06 
</DataArray>
<DataArray Name="strain" format="ascii" type="Float32">
0.0026718 0.0026741 0.00267625 0.00267856 0.00268121 0.00268422 0.0026874 0.00269052 0.00269339 0.00269595 0.00269823 0.00270031 0.00270228 0.00270422 0.00270625 0.00270849 0.00271108 0.00271405 0.00271735 0.00272084 0.0027243 0.00272755 0.00273054 0.00273329 0.00273594 0.00273865 0.0027415 0.00274452 0.00274762 0.00275133 
</DataArray>
</CellData>
<Polys>
<DataArray Name="connectivity" format="ascii" type="Int32">

</DataArray>
<DataArray Name="offsets" format="ascii" type="Int32">

</DataArray>
</Polys>
<Lines>
<DataArray Name="connectivity" format="ascii" type="Int32">
30 29 29 28 28 27 27 25 25 21 21 17 17 20 20 15 15 13 13 12 12 11 11 19 19 10 10 7 7 6 6 4 4 3 3 5 5 2 2 14 14 26 26 24 24 1 1 23 23 0 0 16 16 9 9 22 22 18 18 8 
</DataArray>
<DataArray Name="offsets" format="ascii" type="Int32">
2 4 6 8 10 12 14 16 18 20 22 24 26 28 30 32 34 36 38 40 42 44 46 48 50 52 54 56 58 60 
</DataArray>
</Lines>
</Piece>
</PolyData>
</VTKFile>
