<?xml version="1.0"?>
<VTKFile byte_order="LittleEndian" type="PolyData" version="0.1">
<PolyData>
<Piece NumberOfLines="30" NumberOfPoints="31" NumberOfPolys="0" NumberOfStrips="0" NumberOfVerts="0">
<Points>
<DataArray NumberOfComponents="3" format="ascii" type="Float32">
-66.5516 0 170.075 -93.2687 0 155.828 -146.875 0 127.659 -173.764 0 113.741 -187.23 0 106.824 -160.312 0 120.686 -200.711 0 99.9343 -214.205 0 93.073 -0.00769501 0 206.157 -39.8914 0 184.429 -227.714 0 86.2397 -254.775 0 72.6582 -268.326 0 65.9101 -281.892 0 59.1906 -133.452 0 134.66 -295.471 0 52.4995 -53.2144 0 177.239 -322.673 0 39.203 -13.2881 0 198.888 -241.237 0 79.4347 -309.065 0 45.837 -336.294 0 32.5976 -26.5827 0 191.646 -79.903 0 162.938 -106.649 0 148.745 -349.929 0 26.0209 -120.043 0 141.689 -363.578 0 19.4728 -377.24 0 12.9534 -390.916 0 6.46238 -404.606 0 0 
</DataArray>
</Points>
<PointData>
<DataArray Name="velocity_mag" format="ascii" type="Float32">
0.0464603 0.0605289 0.0777346 0.0802742 0.0833561 0.0791348 0.0834053 0.0854515 0 0.0373525 0.0840583 0.0796957 0.0768943 0.070204 0.0751046 0.0639027 0.0422666 0.0576291 0.0320303 0.0850196 0.059902 0.052356 0.0346653 0.0522911 0.0687691 0.0451694 0.0725825 0.0320398 0.0210748 0.011049 0 
</DataArray>
</PointData>
<CellData Normals="cell_normals" Scalars="cell_scalars">
<DataArray Name="tension" format="ascii" type="Float32">
5.01025e+06 5.01524e+06 5.02033e+06 5.02556e+06 5.03098e+06 5.03662e+06 5.04251e+06 5.04865e+06 5.055e+06 5.0615e+06 5.06804e+06 5.07445e+06 5.08058e+06 5.08628e+06 5.09149e+06 5.09623e+06 5.10066e+06 5.105e+06 5.10951e+06 5.11439e+06 5.1197e+06 5.12539e+06 5.13124e+06 5.13702e+06 5.14249e+06 5.14756e+06 5.15229e+06 5.15682e+06 5.1616e+06 5.1619e+06 
</DataArray>
<DataArray Name="strain" format="ascii" type="Float32">
0.00270094 0.00270363 0.00270638 0.0027092 0.00271212 0.00271516 0.00271834 0.00272164 0.00272507 0.00272857 0.0027321 0.00273555 0.00273886 0.00274193 0.00274474 0.00274729 0.00274968 0.00275202 0.00275445 0.00275708 0.00275995 0.00276301 0.00276617 0.00276928 0.00277223 0.00277497 0.00277751 0.00277996 0.00278253 0.0027827 
</DataArray>
</CellData>
<Polys>
<DataArray Name="connectivity" format="ascii" type="Int32">

</DataArray>
<DataArray Name="offsets" format="ascii" type="Int32">

</DataArray>
</Polys>
<Lines>
<DataArray Name="connectivity" format="ascii" type="Int32">
30 29 29 28 28 27 27 25 25 21 21 17 17 20 20 15 15 13 13 12 12 11 11 19 19 10 10 7 7 6 6 4 4 3 3 5 5 2 2 14 14 26 26 24 24 1 1 23 23 0 0 16 16 9 9 22 22 18 18 8 
</DataArray>
<DataArray Name="offsets" format="ascii" type="Int32">
2 4 6 8 10 12 14 16 18 20 22 24 26 28 30 32 34 36 38 40 42 44 46 48 50 52 54 56 58 60 
</DataArray>
</Lines>
</Piece>
</PolyData>
</VTKFile>
