<?xml version="1.0"?>
<VTKFile byte_order="LittleEndian" type="PolyData" version="0.1">
<PolyData>
<Piece NumberOfLines="30" NumberOfPoints="31" NumberOfPolys="0" NumberOfStrips="0" NumberOfVerts="0">
<Points>
<DataArray NumberOfComponents="3" format="ascii" type="Float32">
-66.5545 0 170.048 -93.2665 0 155.794 -146.866 0 127.617 -173.753 0 113.696 -187.218 0 106.778 -160.302 0 120.643 -200.698 0 99.8887 -214.192 0 93.0276 -0.0286163 0 206.157 -39.9007 0 184.411 -227.701 0 86.1952 -254.761 0 72.6166 -268.313 0 65.8707 -281.879 0 59.1537 -133.444 0 134.619 -295.46 0 52.4655 -53.2203 0 177.216 -322.663 0 39.1755 -13.3049 0 198.882 -241.224 0 79.3914 -309.054 0 45.8061 -336.286 0 32.5738 -26.5956 0 191.633 -79.9032 0 162.907 -106.644 0 148.708 -349.922 0 26.0012 -120.037 0 141.65 -363.573 0 19.4577 -377.237 0 12.9431 -390.915 0 6.45714 -404.606 0 0 
</DataArray>
</Points>
<PointData>
<DataArray Name="velocity_mag" format="ascii" type="Float32">
0.0544871 0.0689392 0.0937876 0.103176 0.106675 0.0969133 0.109193 0.109635 0 0.0329146 0.106711 0.101715 0.0969079 0.0962165 0.0899013 0.0907451 0.044939 0.0731237 0.0137939 0.102887 0.0828534 0.0644633 0.0252006 0.0637046 0.0733849 0.052031 0.0822784 0.0390163 0.0237749 0.0139632 0 
</DataArray>
</PointData>
<CellData Normals="cell_normals" Scalars="cell_scalars">
<DataArray Name="tension" format="ascii" type="Float32">
4.94271e+06 4.94821e+06 4.95418e+06 4.96041e+06 4.96665e+06 4.97271e+06 4.97848e+06 4.98395e+06 4.98916e+06 4.99419e+06 4.99914e+06 5.00413e+06 5.00929e+06 5.01473e+06 5.02052e+06 5.02664e+06 5.03299e+06 5.03934e+06 5.04543e+06 5.05102e+06 5.05599e+06 5.06033e+06 5.06421e+06 5.06788e+06 5.07162e+06 5.07566e+06 5.08011e+06 5.08498e+06 5.09017e+06 5.09578e+06 
</DataArray>
<DataArray Name="strain" format="ascii" type="Float32">
0.00266453 0.0026675 0.00267072 0.00267407 0.00267744 0.0026807 0.00268382 0.00268677 0.00268957 0.00269228 0.00269495 0.00269765 0.00270043 0.00270336 0.00270648 0.00270978 0.0027132 0.00271662 0.00271991 0.00272292 0.0027256 0.00272794 0.00273003 0.00273201 0.00273403 0.00273621 0.00273861 0.00274123 0.00274403 0.00274705 
</DataArray>
</CellData>
<Polys>
<DataArray Name="connectivity" format="ascii" type="Int32">

</DataArray>
<DataArray Name="offsets" format="ascii" type="Int32">

</DataArray>
</Polys>
<Lines>
<DataArray Name="connectivity" format="ascii" type="Int32">
30 29 29 28 28 27 27 25 25 21 21 17 17 20 20 15 15 13 13 12 12 11 11 19 19 10 10 7 7 6 6 4 4 3 3 5 5 2 2 14 14 26 26 24 24 1 1 23 23 0 0 16 16 9 9 22 22 18 18 8 
</DataArray>
<DataArray Name="offsets" format="ascii" type="Int32">
2 4 6 8 10 12 14 16 18 20 22 24 26 28 30 32 34 36 38 40 42 44 46 48 50 52 54 56 58 60 
</DataArray>
</Lines>
</Piece>
</PolyData>
</VTKFile>
