<?xml version="1.0"?>
<VTKFile byte_order="LittleEndian" type="PolyData" version="0.1">
<PolyData>
<Piece NumberOfLines="30" NumberOfPoints="31" NumberOfPolys="0" NumberOfStrips="0" NumberOfVerts="0">
<Points>
<DataArray NumberOfComponents="3" format="ascii" type="Float32">
-66.5753 0 170.087 -93.2943 0 155.846 -146.903 0 127.689 -173.793 0 113.775 -187.259 0 106.859 -160.341 0 120.718 -200.739 0 99.9701 -214.233 0 93.1092 -0.0285812 0 206.157 -39.9134 0 184.435 -227.741 0 86.2758 -254.799 0 72.6924 -268.349 0 65.9425 -281.913 0 59.2204 -133.48 0 134.687 -295.49 0 52.5263 -53.2372 0 177.248 -322.687 0 39.2232 -13.3091 0 198.89 -241.263 0 79.4701 -309.082 0 45.8605 -336.306 0 32.6144 -26.6041 0 191.649 -79.9277 0 162.953 -106.675 0 148.766 -349.938 0 26.0341 -120.07 0 141.713 -363.585 0 19.4824 -377.245 0 12.9593 -390.919 0 6.46519 -404.606 0 0 
</DataArray>
</Points>
<PointData>
<DataArray Name="velocity_mag" format="ascii" type="Float32">
0.0554365 0.0783632 0.105597 0.111156 0.110696 0.110141 0.108369 0.109158 0 0.0330988 0.108603 0.101934 0.098037 0.0897992 0.0988517 0.0846306 0.0448619 0.0689358 0.00956266 0.106295 0.0763917 0.0573079 0.0195213 0.0646218 0.0858267 0.0467237 0.0906875 0.0367604 0.0241402 0.0107555 0 
</DataArray>
</PointData>
<CellData Normals="cell_normals" Scalars="cell_scalars">
<DataArray Name="tension" format="ascii" type="Float32">
4.92578e+06 4.93129e+06 4.93733e+06 4.94378e+06 4.95048e+06 4.95722e+06 4.96378e+06 4.97001e+06 4.9758e+06 4.98116e+06 4.98619e+06 4.99102e+06 4.99582e+06 5.0007e+06 5.00571e+06 5.01085e+06 5.01606e+06 5.0213e+06 5.02656e+06 5.03184e+06 5.03718e+06 5.04262e+06 5.04818e+06 5.05382e+06 5.05949e+06 5.06514e+06 5.07072e+06 5.07624e+06 5.08175e+06 5.08697e+06 
</DataArray>
<DataArray Name="strain" format="ascii" type="Float32">
0.00265541 0.00265838 0.00266163 0.00266511 0.00266872 0.00267235 0.00267589 0.00267925 0.00268237 0.00268526 0.00268797 0.00269058 0.00269317 0.0026958 0.0026985 0.00270126 0.00270407 0.0027069 0.00270973 0.00271258 0.00271546 0.0027184 0.00272139 0.00272443 0.00272749 0.00273053 0.00273354 0.00273652 0.00273949 0.0027423 
</DataArray>
</CellData>
<Polys>
<DataArray Name="connectivity" format="ascii" type="Int32">

</DataArray>
<DataArray Name="offsets" format="ascii" type="Int32">

</DataArray>
</Polys>
<Lines>
<DataArray Name="connectivity" format="ascii" type="Int32">
30 29 29 28 28 27 27 25 25 21 21 17 17 20 20 15 15 13 13 12 12 11 11 19 19 10 10 7 7 6 6 4 4 3 3 5 5 2 2 14 14 26 26 24 24 1 1 23 23 0 0 16 16 9 9 22 22 18 18 8 
</DataArray>
<DataArray Name="offsets" format="ascii" type="Int32">
2 4 6 8 10 12 14 16 18 20 22 24 26 28 30 32 34 36 38 40 42 44 46 48 50 52 54 56 58 60 
</DataArray>
</Lines>
</Piece>
</PolyData>
</VTKFile>
