<?xml version="1.0"?>
<VTKFile byte_order="LittleEndian" type="PolyData" version="0.1">
<PolyData>
<Piece NumberOfLines="30" NumberOfPoints="31" NumberOfPolys="0" NumberOfStrips="0" NumberOfVerts="0">
<Points>
<DataArray NumberOfComponents="3" format="ascii" type="Float32">
-66.5656 0 170.146 -93.2973 0 155.924 -146.925 0 127.792 -173.821 0 113.884 -187.289 0 106.969 -160.366 0 120.825 -200.771 0 100.082 -214.266 0 93.2201 0.0198699 0 206.157 -39.8895 0 184.473 -227.775 0 86.3853 -254.833 0 72.7957 -268.382 0 66.0414 -281.944 0 59.3141 -133.498 0 134.786 -295.52 0 52.614 -53.2206 0 177.296 -322.712 0 39.2952 -13.2692 0 198.903 -241.297 0 79.5771 -309.109 0 45.941 -336.328 0 32.6769 -26.5724 0 191.675 -79.9246 0 163.022 -106.684 0 148.852 -349.957 0 26.0863 -120.084 0 141.806 -363.599 0 19.5231 -377.255 0 12.9875 -390.924 0 6.47971 -404.606 0 0 
</DataArray>
</Points>
<PointData>
<DataArray Name="velocity_mag" format="ascii" type="Float32">
0.104328 0.14429 0.211548 0.224055 0.229142 0.219755 0.230672 0.231177 0 0.0632089 0.232716 0.219745 0.209735 0.197924 0.19734 0.187331 0.0846486 0.151121 0.0239473 0.230015 0.17035 0.13035 0.0414274 0.123334 0.162071 0.105754 0.181321 0.0819666 0.0556522 0.0293612 0 
</DataArray>
</PointData>
<CellData Normals="cell_normals" Scalars="cell_scalars">
<DataArray Name="tension" format="ascii" type="Float32">
5.10111e+06 5.10626e+06 5.11141e+06 5.11620e+06 5.12036e+06 5.12378e+06 5.12666e+06 5.12938e+06 5.13236e+06 5.13589e+06 5.14001e+06 5.14455e+06 5.14925e+06 5.15389e+06 5.15843e+06 5.163e+06 5.16778e+06 5.17294e+06 5.1785e+06 5.18435e+06 5.19029e+06 5.19611e+06 5.20162e+06 5.2067e+06 5.21132e+06 5.21551e+06 5.21941e+06 5.22327e+06 5.22749e+06 5.22869e+06 
</DataArray>
<DataArray Name="strain" format="ascii" type="Float32">
0.00274992 0.0027527 0.00275548 0.00275806 0.0027603 0.00276215 0.0027637 0.00276517 0.00276677 0.00276867 0.00277089 0.00277334 0.00277587 0.00277838 0.00278083 0.00278329 0.00278587 0.00278865 0.00279164 0.0027948 0.002798 0.00280114 0.00280411 0.00280685 0.00280934 0.0028116 0.0028137 0.00281578 0.00281806 0.0028187 
</DataArray>
</CellData>
<Polys>
<DataArray Name="connectivity" format="ascii" type="Int32">

</DataArray>
<DataArray Name="offsets" format="ascii" type="Int32">

</DataArray>
</Polys>
<Lines>
<DataArray Name="connectivity" format="ascii" type="Int32">
30 29 29 28 28 27 27 25 25 21 21 17 17 20 20 15 15 13 13 12 12 11 11 19 19 10 10 7 7 6 6 4 4 3 3 5 5 2 2 14 14 26 26 24 24 1 1 23 23 0 0 16 16 9 9 22 22 18 18 8 
</DataArray>
<DataArray Name="offsets" format="ascii" type="Int32">
2 4 6 8 10 12 14 16 18 20 22 24 26 28 30 32 34 36 38 40 42 44 46 48 50 52 54 56 58 60 
</DataArray>
</Lines>
</Piece>
</PolyData>
</VTKFile>
