<?xml version="1.0"?>
<VTKFile byte_order="LittleEndian" type="PolyData" version="0.1">
<PolyData>
<Piece NumberOfLines="30" NumberOfPoints="31" NumberOfPolys="0" NumberOfStrips="0" NumberOfVerts="0">
<Points>
<DataArray NumberOfComponents="3" format="ascii" type="Float32">
-66.579 0 170.095 -93.2989 0 155.856 -146.908 0 127.7 -173.798 0 113.785 -187.264 0 106.868 -160.346 0 120.729 -200.743 0 99.9788 -214.237 0 93.1172 -0.0283715 0 206.157 -39.9159 0 184.44 -227.745 0 86.2834 -254.803 0 72.6991 -268.352 0 65.9488 -281.916 0 59.2263 -133.485 0 134.698 -295.493 0 52.5318 -53.2403 0 177.254 -322.689 0 39.2275 -13.3099 0 198.892 -241.267 0 79.4774 -309.084 0 45.8654 -336.307 0 32.618 -26.6058 0 191.653 -79.9318 0 162.962 -106.68 0 148.776 -349.94 0 26.037 -120.075 0 141.724 -363.586 0 19.4847 -377.246 0 12.9611 -390.919 0 6.46607 -404.606 0 0 
</DataArray>
</Points>
<PointData>
<DataArray Name="velocity_mag" format="ascii" type="Float32">
0.0617544 0.0825865 0.111985 0.123192 0.124756 0.118364 0.126258 0.125938 0 0.0404803 0.118572 0.110153 0.105577 0.0981589 0.107702 0.0895793 0.0529695 0.0647538 0.00988988 0.114384 0.0784196 0.0505153 0.0241853 0.0700994 0.0942991 0.0362117 0.10169 0.0257951 0.0161278 0.00688317 0 
</DataArray>
</PointData>
<CellData Normals="cell_normals" Scalars="cell_scalars">
<DataArray Name="tension" format="ascii" type="Float32">
4.93135e+06 4.93613e+06 4.94091e+06 4.9459e+06 4.95128e+06 4.95712e+06 4.96335e+06 4.96975e+06 4.97598e+06 4.98175e+06 4.98688e+06 4.99137e+06 4.99543e+06 4.99939e+06 5.00359e+06 5.00828e+06 5.01352e+06 5.01923e+06 5.0252e+06 5.03118e+06 5.03697e+06 5.04243e+06 5.04751e+06 5.05224e+06 5.05671e+06 5.06102e+06 5.06532e+06 5.06974e+06 5.07444e+06 5.08021e+06 
</DataArray>
<DataArray Name="strain" format="ascii" type="Float32">
0.00265841 0.00266099 0.00266357 0.00266625 0.00266915 0.0026723 0.00267566 0.00267911 0.00268247 0.00268558 0.00268834 0.00269076 0.00269295 0.00269509 0.00269735 0.00269988 0.00270271 0.00270579 0.002709 0.00271223 0.00271535 0.00271829 0.00272103 0.00272358 0.00272599 0.00272831 0.00273063 0.00273302 0.00273555 0.00273866 
</DataArray>
</CellData>
<Polys>
<DataArray Name="connectivity" format="ascii" type="Int32">

</DataArray>
<DataArray Name="offsets" format="ascii" type="Int32">

</DataArray>
</Polys>
<Lines>
<DataArray Name="connectivity" format="ascii" type="Int32">
30 29 29 28 28 27 27 25 25 21 21 17 17 20 20 15 15 13 13 12 12 11 11 19 19 10 10 7 7 6 6 4 4 3 3 5 5 2 2 14 14 26 26 24 24 1 1 23 23 0 0 16 16 9 9 22 22 18 18 8 
</DataArray>
<DataArray Name="offsets" format="ascii" type="Int32">
2 4 6 8 10 12 14 16 18 20 22 24 26 28 30 32 34 36 38 40 42 44 46 48 50 52 54 56 58 60 
</DataArray>
</Lines>
</Piece>
</PolyData>
</VTKFile>
