<?xml version="1.0"?>
<VTKFile byte_order="LittleEndian" type="PolyData" version="0.1">
<PolyData>
<Piece NumberOfLines="30" NumberOfPoints="31" NumberOfPolys="0" NumberOfStrips="0" NumberOfVerts="0">
<Points>
<DataArray NumberOfComponents="3" format="ascii" type="Float32">
-66.5737 0 170.129 -93.3013 0 155.902 -146.923 0 127.763 -173.817 0 113.853 -187.284 0 106.938 -160.363 0 120.794 -200.765 0 100.049 -214.26 0 93.1876 0 0 206.157 -39.902 0 184.462 -227.768 0 86.353 -254.825 0 72.7648 -268.374 0 66.0115 -281.937 0 59.2855 -133.497 0 134.758 -295.513 0 52.587 -53.2308 0 177.283 -322.705 0 39.2726 -13.2866 0 198.899 -241.29 0 79.5453 -309.102 0 45.916 -336.322 0 32.6571 -26.5872 0 191.668 -79.9305 0 163.002 -106.686 0 148.827 -349.952 0 26.0695 -120.085 0 141.779 -363.595 0 19.5098 -377.252 0 12.9783 -390.922 0 6.47501 -404.606 0 0 
</DataArray>
</Points>
<PointData>
<DataArray Name="velocity_mag" format="ascii" type="Float32">
0.0044966 0.00620196 0.00892246 0.00970965 0.00991884 0.0093745 0.00999613 0.00993915 0 0.00270259 0.00974919 0.00899347 0.00844697 0.00780483 0.00836519 0.00708151 0.00360525 0.00545128 0.000894761 0.00943122 0.00629205 0.00457322 0.001797 0.00536623 0.00699015 0.00367051 0.00771622 0.00275406 0.00183274 0.000913233 0 
</DataArray>
</PointData>
<CellData Normals="cell_normals" Scalars="cell_scalars">
<DataArray Name="tension" format="ascii" type="Float32">
5.02362e+06 5.02855e+06 5.0335e+06 5.03848e+06 5.04348e+06 5.0485e+06 5.05353e+06 5.0586e+06 5.06368e+06 5.06878e+06 5.0739e+06 5.07905e+06 5.08421e+06 5.0894e+06 5.0946e+06 5.09983e+06 5.10508e+06 5.11034e+06 5.11563e+06 5.12094e+06 5.12626e+06 5.13161e+06 5.13698e+06 5.14236e+06 5.14777e+06 5.1532e+06 5.15864e+06 5.16411e+06 5.1696e+06 5.17511e+06 
</DataArray>
<DataArray Name="strain" format="ascii" type="Float32">
0.00270815 0.00271081 0.00271348 0.00271616 0.00271886 0.00272156 0.00272428 0.00272701 0.00272975 0.0027325 0.00273526 0.00273803 0.00274082 0.00274361 0.00274642 0.00274923 0.00275206 0.0027549 0.00275775 0.00276061 0.00276348 0.00276637 0.00276926 0.00277216 0.00277508 0.002778 0.00278094 0.00278389 0.00278685 0.00278981 
</DataArray>
</CellData>
<Polys>
<DataArray Name="connectivity" format="ascii" type="Int32">

</DataArray>
<DataArray Name="offsets" format="ascii" type="Int32">

</DataArray>
</Polys>
<Lines>
<DataArray Name="connectivity" format="ascii" type="Int32">
30 29 29 28 28 27 27 25 25 21 21 17 17 20 20 15 15 13 13 12 12 11 11 19 19 10 10 7 7 6 6 4 4 3 3 5 5 2 2 14 14 26 26 24 24 1 1 23 23 0 0 16 16 9 9 22 22 18 18 8 
</DataArray>
<DataArray Name="offsets" format="ascii" type="Int32">
2 4 6 8 10 12 14 16 18 20 22 24 26 28 30 32 34 36 38 40 42 44 46 48 50 52 54 56 58 60 
</DataArray>
</Lines>
</Piece>
</PolyData>
</VTKFile>
