<?xml version="1.0"?>
<VTKFile byte_order="LittleEndian" type="PolyData" version="0.1">
<PolyData>
<Piece NumberOfLines="30" NumberOfPoints="31" NumberOfPolys="0" NumberOfStrips="0" NumberOfVerts="0">
<Points>
<DataArray NumberOfComponents="3" format="ascii" type="Float32">
-66.5696 0 170.16 -93.3031 0 155.94 -146.934 0 127.814 -173.831 0 113.907 -187.299 0 106.992 -160.375 0 120.847 -200.781 0 100.105 -214.277 0 93.2434 0.0235367 0 206.157 -39.8909 0 184.481 -227.785 0 86.4085 -254.843 0 72.8184 -268.392 0 66.0633 -281.954 0 59.335 -133.506 0 134.806 -295.529 0 52.6337 -53.2234 0 177.308 -322.719 0 39.3114 -13.2674 0 198.906 -241.308 0 79.6003 -309.118 0 45.9591 -336.334 0 32.6907 -26.5722 0 191.681 -79.9295 0 163.037 -106.69 0 148.87 -349.962 0 26.0972 -120.091 0 141.825 -363.603 0 19.5313 -377.257 0 12.993 -390.925 0 6.48241 -404.606 0 0 
</DataArray>
</Points>
<PointData>
<DataArray Name="velocity_mag" format="ascii" type="Float32">
0.108152 0.143306 0.203183 0.21692 0.220928 0.209275 0.222997 0.217026 0 0.0688144 0.209399 0.19402 0.180367 0.171053 0.193652 0.160106 0.0889396 0.127199 0.0260759 0.202276 0.14503 0.107783 0.0460469 0.12494 0.161435 0.086042 0.180018 0.0665279 0.0442138 0.0218853 0 
</DataArray>
</PointData>
<CellData Normals="cell_normals" Scalars="cell_scalars">
<DataArray Name="tension" format="ascii" type="Float32">
5.10749e+06 5.11248e+06 5.11747e+06 5.1223e+06 5.12685e+06 5.13102e+06 5.13484e+06 5.13844e+06 5.14201e+06 5.14578e+06 5.14993e+06 5.15454e+06 5.15956e+06 5.16484e+06 5.17018e+06 5.1754e+06 5.18038e+06 5.18508e+06 5.18957e+06 5.19396e+06 5.19836e+06 5.20289e+06 5.20762e+06 5.21257e+06 5.21774e+06 5.22311e+06 5.22861e+06 5.23418e+06 5.23983e+06 5.24259e+06 
</DataArray>
<DataArray Name="strain" format="ascii" type="Float32">
0.00275336 0.00275606 0.00275874 0.00276135 0.0027638 0.00276605 0.00276811 0.00277005 0.00277197 0.002774 0.00277624 0.00277873 0.00278143 0.00278428 0.00278716 0.00278997 0.00279266 0.00279519 0.00279761 0.00279998 0.00280235 0.00280479 0.00280734 0.00281001 0.0028128 0.00281569 0.00281866 0.00282166 0.00282471 0.00282619 
</DataArray>
</CellData>
<Polys>
<DataArray Name="connectivity" format="ascii" type="Int32">

</DataArray>
<DataArray Name="offsets" format="ascii" type="Int32">

</DataArray>
</Polys>
<Lines>
<DataArray Name="connectivity" format="ascii" type="Int32">
30 29 29 28 28 27 27 25 25 21 21 17 17 20 20 15 15 13 13 12 12 11 11 19 19 10 10 7 7 6 6 4 4 3 3 5 5 2 2 14 14 26 26 24 24 1 1 23 23 0 0 16 16 9 9 22 22 18 18 8 
</DataArray>
<DataArray Name="offsets" format="ascii" type="Int32">
2 4 6 8 10 12 14 16 18 20 22 24 26 28 30 32 34 36 38 40 42 44 46 48 50 52 54 56 58 60 
</DataArray>
</Lines>
</Piece>
</PolyData>
</VTKFile>
