<?xml version="1.0"?>
<VTKFile byte_order="LittleEndian" type="PolyData" version="0.1">
<PolyData>
<Piece NumberOfLines="30" NumberOfPoints="31" NumberOfPolys="0" NumberOfStrips="0" NumberOfVerts="0">
<Points>
<DataArray NumberOfComponents="3" format="ascii" type="Float32">
-66.5701 0 170.157 -93.3037 0 155.939 -146.935 0 127.813 -173.831 0 113.907 -187.3 0 106.993 -160.376 0 120.847 -200.782 0 100.105 -214.277 0 93.2439 0.02181 0 206.157 -39.8918 0 184.48 -227.786 0 86.4092 -254.844 0 72.8191 -268.392 0 66.0638 -281.954 0 59.3352 -133.507 0 134.805 -295.529 0 52.6336 -53.224 0 177.306 -322.719 0 39.3108 -13.2689 0 198.906 -241.308 0 79.6009 -309.118 0 45.9587 -336.334 0 32.6902 -26.5734 0 191.68 -79.93 0 163.035 -106.691 0 148.868 -349.962 0 26.097 -120.092 0 141.824 -363.603 0 19.5312 -377.258 0 12.993 -390.925 0 6.48246 -404.606 0 0 
</DataArray>
</Points>
<PointData>
<DataArray Name="velocity_mag" format="ascii" type="Float32">
0.0405561 0.0441911 0.0608504 0.0625049 0.0585364 0.065158 0.0571132 0.0567699 0 0.0322337 0.05264 0.0470386 0.046795 0.0457351 0.0576721 0.0426039 0.0373836 0.0347371 0.0242173 0.048075 0.0393129 0.0317006 0.0291585 0.0438971 0.0461246 0.0250531 0.0516803 0.0196403 0.0136686 0.0061588 0 
</DataArray>
</PointData>
<CellData Normals="cell_normals" Scalars="cell_scalars">
<DataArray Name="tension" format="ascii" type="Float32">
5.10245e+06 5.10728e+06 5.11202e+06 5.11669e+06 5.12129e+06 5.12581e+06 5.13022e+06 5.1345e+06 5.13867e+06 5.14274e+06 5.14675e+06 5.1507e+06 5.15458e+06 5.15833e+06 5.16192e+06 5.16539e+06 5.16887e+06 5.17261e+06 5.17687e+06 5.18186e+06 5.18766e+06 5.19414e+06 5.20099e+06 5.20784e+06 5.21434e+06 5.22025e+06 5.22559e+06 5.23053e+06 5.23546e+06 5.23737e+06 
</DataArray>
<DataArray Name="strain" format="ascii" type="Float32">
0.00275065 0.00275325 0.00275581 0.00275832 0.00276081 0.00276324 0.00276562 0.00276793 0.00277017 0.00277237 0.00277453 0.00277666 0.00277875 0.00278077 0.0027827 0.00278458 0.00278646 0.00278847 0.00279077 0.00279346 0.00279658 0.00280007 0.00280377 0.00280746 0.00281096 0.00281415 0.00281703 0.00281969 0.00282235 0.00282338 
</DataArray>
</CellData>
<Polys>
<DataArray Name="connectivity" format="ascii" type="Int32">

</DataArray>
<DataArray Name="offsets" format="ascii" type="Int32">

</DataArray>
</Polys>
<Lines>
<DataArray Name="connectivity" format="ascii" type="Int32">
30 29 29 28 28 27 27 25 25 21 21 17 17 20 20 15 15 13 13 12 12 11 11 19 19 10 10 7 7 6 6 4 4 3 3 5 5 2 2 14 14 26 26 24 24 1 1 23 23 0 0 16 16 9 9 22 22 18 18 8 
</DataArray>
<DataArray Name="offsets" format="ascii" type="Int32">
2 4 6 8 10 12 14 16 18 20 22 24 26 28 30 32 34 36 38 40 42 44 46 48 50 52 54 56 58 60 
</DataArray>
</Lines>
</Piece>
</PolyData>
</VTKFile>
