<?xml version="1.0"?>
<VTKFile byte_order="LittleEndian" type="PolyData" version="0.1">
<PolyData>
<Piece NumberOfLines="30" NumberOfPoints="31" NumberOfPolys="0" NumberOfStrips="0" NumberOfVerts="0">
<Points>
<DataArray NumberOfComponents="3" format="ascii" type="Float32">
-66.5871 0 170.191 -93.3266 0 155.983 -146.965 0 127.871 -173.864 0 113.968 -187.333 0 107.055 -160.408 0 120.907 -200.815 0 100.168 -214.31 0 93.3059 0.0231246 0 206.157 -39.9018 0 184.501 -227.818 0 86.4697 -254.873 0 72.875 -268.42 0 66.1167 -281.98 0 59.3846 -133.536 0 134.861 -295.553 0 52.6788 -53.2376 0 177.333 -322.738 0 39.3473 -13.2714 0 198.913 -241.339 0 79.6593 -309.139 0 45.9998 -336.35 0 32.7216 -26.5798 0 191.694 -79.9501 0 163.074 -106.716 0 148.917 -349.975 0 26.1227 -120.119 0 141.876 -363.613 0 19.5508 -377.264 0 13.0063 -390.929 0 6.48941 -404.606 0 0 
</DataArray>
</Points>
<PointData>
<DataArray Name="velocity_mag" format="ascii" type="Float32">
0.063471 0.0850648 0.110675 0.117354 0.117528 0.114977 0.119462 0.120057 0 0.041307 0.1203 0.11084 0.102841 0.0949552 0.104938 0.084452 0.0524201 0.0641537 0.0208888 0.119084 0.075012 0.0544154 0.030846 0.0733631 0.094765 0.0432568 0.103258 0.032431 0.0231002 0.0111076 0 
</DataArray>
</PointData>
<CellData Normals="cell_normals" Scalars="cell_scalars">
<DataArray Name="tension" format="ascii" type="Float32">
5.08408e+06 5.089e+06 5.09388e+06 5.09868e+06 5.10335e+06 5.10788e+06 5.1123e+06 5.11665e+06 5.12102e+06 5.12549e+06 5.13015e+06 5.13507e+06 5.14033e+06 5.14601e+06 5.15216e+06 5.15883e+06 5.16596e+06 5.17342e+06 5.18101e+06 5.18847e+06 5.19559e+06 5.20221e+06 5.2083e+06 5.21394e+06 5.21931e+06 5.22458e+06 5.22987e+06 5.23528e+06 5.24068e+06 5.24907e+06 
</DataArray>
<DataArray Name="strain" format="ascii" type="Float32">
0.00274074 0.0027434 0.00274603 0.00274861 0.00275113 0.00275358 0.00275596 0.0027583 0.00276066 0.00276307 0.00276558 0.00276823 0.00277107 0.00277413 0.00277745 0.00278104 0.00278488 0.00278891 0.002793 0.00279702 0.00280086 0.00280442 0.00280771 0.00281075 0.00281365 0.00281648 0.00281934 0.00282225 0.00282516 0.00282969 
</DataArray>
</CellData>
<Polys>
<DataArray Name="connectivity" format="ascii" type="Int32">

</DataArray>
<DataArray Name="offsets" format="ascii" type="Int32">

</DataArray>
</Polys>
<Lines>
<DataArray Name="connectivity" format="ascii" type="Int32">
30 29 29 28 28 27 27 25 25 21 21 17 17 20 20 15 15 13 13 12 12 11 11 19 19 10 10 7 7 6 6 4 4 3 3 5 5 2 2 14 14 26 26 24 24 1 1 23 23 0 0 16 16 9 9 22 22 18 18 8 
</DataArray>
<DataArray Name="offsets" format="ascii" type="Int32">
2 4 6 8 10 12 14 16 18 20 22 24 26 28 30 32 34 36 38 40 42 44 46 48 50 52 54 56 58 60 
</DataArray>
</Lines>
</Piece>
</PolyData>
</VTKFile>
