<?xml version="1.0"?>
<VTKFile byte_order="LittleEndian" type="PolyData" version="0.1">
<PolyData>
<Piece NumberOfLines="30" NumberOfPoints="31" NumberOfPolys="0" NumberOfStrips="0" NumberOfVerts="0">
<Points>
<DataArray NumberOfComponents="3" format="ascii" type="Float32">
-66.5574 0 170.086 -93.2766 0 155.843 -146.886 0 127.681 -173.776 0 113.764 -187.242 0 106.847 -160.324 0 120.709 -200.722 0 99.9577 -214.217 0 93.0963 -0.00837714 0 206.157 -39.895 0 184.435 -227.726 0 86.2629 -254.786 0 72.6805 -268.337 0 65.9315 -281.902 0 59.2108 -133.462 0 134.681 -295.48 0 52.5184 -53.2191 0 177.247 -322.68 0 39.2187 -13.2897 0 198.89 -241.249 0 79.4577 -309.073 0 45.8544 -336.3 0 32.6112 -26.5852 0 191.649 -79.9099 0 162.951 -106.658 0 148.762 -349.934 0 26.0322 -120.053 0 141.708 -363.582 0 19.4815 -377.243 0 12.9592 -390.918 0 6.46533 -404.606 0 0 
</DataArray>
</Points>
<PointData>
<DataArray Name="velocity_mag" format="ascii" type="Float32">
0.104945 0.138716 0.208183 0.229066 0.233688 0.220794 0.239407 0.24053 0 0.0665983 0.238951 0.227556 0.213846 0.199462 0.196202 0.18608 0.087553 0.149546 0.0305189 0.234576 0.172417 0.126561 0.0467411 0.12311 0.158329 0.101674 0.177844 0.0769633 0.0547879 0.0295212 0 
</DataArray>
</PointData>
<CellData Normals="cell_normals" Scalars="cell_scalars">
<DataArray Name="tension" format="ascii" type="Float32">
5.01921e+06 5.02318e+06 5.02639e+06 5.02916e+06 5.03188e+06 5.03494e+06 5.03867e+06 5.04321e+06 5.04849e+06 5.05429e+06 5.06028e+06 5.06614e+06 5.07166e+06 5.07679e+06 5.08162e+06 5.08633e+06 5.0911e+06 5.09599e+06 5.10098e+06 5.10594e+06 5.11075e+06 5.11532e+06 5.11967e+06 5.12395e+06 5.12833e+06 5.13298e+06 5.13796e+06 5.14328e+06 5.14867e+06 5.15892e+06 
</DataArray>
<DataArray Name="strain" format="ascii" type="Float32">
0.00270577 0.00270791 0.00270965 0.00271114 0.0027126 0.00271426 0.00271627 0.00271871 0.00272156 0.00272468 0.00272791 0.00273107 0.00273405 0.00273681 0.00273942 0.00274196 0.00274453 0.00274716 0.00274985 0.00275253 0.00275512 0.00275758 0.00275993 0.00276224 0.0027646 0.0027671 0.00276979 0.00277266 0.00277556 0.00278109 
</DataArray>
</CellData>
<Polys>
<DataArray Name="connectivity" format="ascii" type="Int32">

</DataArray>
<DataArray Name="offsets" format="ascii" type="Int32">

</DataArray>
</Polys>
<Lines>
<DataArray Name="connectivity" format="ascii" type="Int32">
30 29 29 28 28 27 27 25 25 21 21 17 17 20 20 15 15 13 13 12 12 11 11 19 19 10 10 7 7 6 6 4 4 3 3 5 5 2 2 14 14 26 26 24 24 1 1 23 23 0 0 16 16 9 9 22 22 18 18 8 
</DataArray>
<DataArray Name="offsets" format="ascii" type="Int32">
2 4 6 8 10 12 14 16 18 20 22 24 26 28 30 32 34 36 38 40 42 44 46 48 50 52 54 56 58 60 
</DataArray>
</Lines>
</Piece>
</PolyData>
</VTKFile>
