<?xml version="1.0"?>
<VTKFile byte_order="LittleEndian" type="PolyData" version="0.1">
<PolyData>
<Piece NumberOfLines="30" NumberOfPoints="31" NumberOfPolys="0" NumberOfStrips="0" NumberOfVerts="0">
<Points>
<DataArray NumberOfComponents="3" format="ascii" type="Float32">
-66.5743 0 170.159 -93.3075 0 155.94 -146.937 0 127.813 -173.833 0 113.905 -187.301 0 106.991 -160.378 0 120.846 -200.783 0 100.102 -214.278 0 93.2407 0.0177354 0 206.157 -39.896 0 184.481 -227.786 0 86.4053 -254.843 0 72.8145 -268.392 0 66.059 -281.953 0 59.3303 -133.509 0 134.806 -295.528 0 52.6287 -53.2283 0 177.308 -322.718 0 39.3062 -13.2729 0 198.906 -241.308 0 79.5966 -309.117 0 45.9539 -336.333 0 32.6859 -26.5775 0 191.681 -79.9341 0 163.037 -106.694 0 148.869 -349.961 0 26.0932 -120.095 0 141.825 -363.602 0 19.5279 -377.257 0 12.9904 -390.925 0 6.48106 -404.606 0 0 
</DataArray>
</Points>
<PointData>
<DataArray Name="velocity_mag" format="ascii" type="Float32">
0.0302831 0.0350513 0.0428277 0.0440115 0.0454574 0.043423 0.0438431 0.0440317 0 0.02422 0.0436124 0.0385834 0.0360765 0.0298307 0.039894 0.0251626 0.0277881 0.0172742 0.0232992 0.0402555 0.0221335 0.0138867 0.0234621 0.0332905 0.0367794 0.0125285 0.0393801 0.0122209 0.0109688 0.00682985 0 
</DataArray>
</PointData>
<CellData Normals="cell_normals" Scalars="cell_scalars">
<DataArray Name="tension" format="ascii" type="Float32">
5.07972e+06 5.0859e+06 5.09286e+06 5.09992e+06 5.10656e+06 5.11262e+06 5.11822e+06 5.12345e+06 5.12814e+06 5.13204e+06 5.13505e+06 5.13758e+06 5.1404e+06 5.14417e+06 5.14899e+06 5.15437e+06 5.15958e+06 5.16409e+06 5.16793e+06 5.17151e+06 5.17538e+06 5.17989e+06 5.18514e+06 5.19095e+06 5.197e+06 5.20288e+06 5.20825e+06 5.21304e+06 5.21769e+06 5.21867e+06 
</DataArray>
<DataArray Name="strain" format="ascii" type="Float32">
0.00273839 0.00274172 0.00274548 0.00274928 0.00275286 0.00275613 0.00275915 0.00276197 0.0027645 0.0027666 0.00276822 0.00276959 0.00277111 0.00277313 0.00277573 0.00277864 0.00278144 0.00278388 0.00278594 0.00278788 0.00278996 0.00279239 0.00279522 0.00279836 0.00280162 0.00280478 0.00280768 0.00281026 0.00281277 0.0028133 
</DataArray>
</CellData>
<Polys>
<DataArray Name="connectivity" format="ascii" type="Int32">

</DataArray>
<DataArray Name="offsets" format="ascii" type="Int32">

</DataArray>
</Polys>
<Lines>
<DataArray Name="connectivity" format="ascii" type="Int32">
30 29 29 28 28 27 27 25 25 21 21 17 17 20 20 15 15 13 13 12 12 11 11 19 19 10 10 7 7 6 6 4 4 3 3 5 5 2 2 14 14 26 26 24 24 1 1 23 23 0 0 16 16 9 9 22 22 18 18 8 
</DataArray>
<DataArray Name="offsets" format="ascii" type="Int32">
2 4 6 8 10 12 14 16 18 20 22 24 26 28 30 32 34 36 38 40 42 44 46 48 50 52 54 56 58 60 
</DataArray>
</Lines>
</Piece>
</PolyData>
</VTKFile>
