<?xml version="1.0"?>
<VTKFile byte_order="LittleEndian" type="PolyData" version="0.1">
<PolyData>
<Piece NumberOfLines="30" NumberOfPoints="31" NumberOfPolys="0" NumberOfStrips="0" NumberOfVerts="0">
<Points>
<DataArray NumberOfComponents="3" format="ascii" type="Float32">
-66.5839 0 170.132 -93.3117 0 155.906 -146.933 0 127.769 -173.826 0 113.859 -187.293 0 106.943 -160.373 0 120.801 -200.774 0 100.055 -214.268 0 93.1928 -0.0103825 0 206.157 -39.9121 0 184.463 -227.775 0 86.3576 -254.831 0 72.7682 -268.379 0 66.0141 -281.941 0 59.2872 -133.507 0 134.764 -295.516 0 52.588 -53.241 0 177.285 -322.708 0 39.2729 -13.2968 0 198.9 -241.296 0 79.5494 -309.105 0 45.9166 -336.324 0 32.6572 -26.5975 0 191.669 -79.9409 0 163.006 -106.696 0 148.832 -349.953 0 26.0695 -120.095 0 141.785 -363.596 0 19.5099 -377.253 0 12.9782 -390.923 0 6.4749 -404.606 0 0 
</DataArray>
</Points>
<PointData>
<DataArray Name="velocity_mag" format="ascii" type="Float32">
0.0871208 0.116836 0.15898 0.165932 0.168238 0.16537 0.170742 0.172534 0 0.0526086 0.169891 0.156197 0.146803 0.13974 0.151893 0.128989 0.070446 0.102856 0.0246443 0.165041 0.115165 0.0862173 0.0345954 0.102684 0.131628 0.0684661 0.142392 0.0481503 0.0313655 0.0172716 0 
</DataArray>
</PointData>
<CellData Normals="cell_normals" Scalars="cell_scalars">
<DataArray Name="tension" format="ascii" type="Float32">
4.98058e+06 4.9856e+06 4.99069e+06 4.99578e+06 5.00082e+06 5.00584e+06 5.01088e+06 5.01606e+06 5.02149e+06 5.02724e+06 5.03329e+06 5.03955e+06 5.04585e+06 5.05203e+06 5.05792e+06 5.06347e+06 5.06868e+06 5.07366e+06 5.07856e+06 5.08354e+06 5.08876e+06 5.09427e+06 5.10009e+06 5.10612e+06 5.11225e+06 5.11836e+06 5.12435e+06 5.13016e+06 5.13596e+06 5.13699e+06 
</DataArray>
<DataArray Name="strain" format="ascii" type="Float32">
0.00268495 0.00268766 0.0026904 0.00269314 0.00269586 0.00269856 0.00270128 0.00270408 0.002707 0.0027101 0.00271336 0.00271674 0.00272014 0.00272347 0.00272664 0.00272963 0.00273244 0.00273513 0.00273777 0.00274045 0.00274327 0.00274624 0.00274937 0.00275263 0.00275593 0.00275922 0.00276245 0.00276558 0.00276871 0.00276927 
</DataArray>
</CellData>
<Polys>
<DataArray Name="connectivity" format="ascii" type="Int32">

</DataArray>
<DataArray Name="offsets" format="ascii" type="Int32">

</DataArray>
</Polys>
<Lines>
<DataArray Name="connectivity" format="ascii" type="Int32">
30 29 29 28 28 27 27 25 25 21 21 17 17 20 20 15 15 13 13 12 12 11 11 19 19 10 10 7 7 6 6 4 4 3 3 5 5 2 2 14 14 26 26 24 24 1 1 23 23 0 0 16 16 9 9 22 22 18 18 8 
</DataArray>
<DataArray Name="offsets" format="ascii" type="Int32">
2 4 6 8 10 12 14 16 18 20 22 24 26 28 30 32 34 36 38 40 42 44 46 48 50 52 54 56 58 60 
</DataArray>
</Lines>
</Piece>
</PolyData>
</VTKFile>
