<?xml version="1.0"?>
<VTKFile byte_order="LittleEndian" type="PolyData" version="0.1">
<PolyData>
<Piece NumberOfLines="30" NumberOfPoints="31" NumberOfPolys="0" NumberOfStrips="0" NumberOfVerts="0">
<Points>
<DataArray NumberOfComponents="3" format="ascii" type="Float32">
-66.5876 0 170.197 -93.3285 0 155.991 -146.97 0 127.884 -173.869 0 113.982 -187.338 0 107.069 -160.413 0 120.921 -200.82 0 100.181 -214.315 0 93.319 0.0259943 0 206.157 -39.901 0 184.504 -227.823 0 86.4822 -254.877 0 72.886 -268.424 0 66.1268 -281.983 0 59.3936 -133.54 0 134.873 -295.556 0 52.687 -53.2375 0 177.338 -322.74 0 39.3535 -13.2692 0 198.914 -241.344 0 79.6711 -309.142 0 46.0069 -336.352 0 32.7268 -26.5782 0 191.696 -79.9513 0 163.081 -106.719 0 148.927 -349.977 0 26.1267 -120.123 0 141.887 -363.614 0 19.5537 -377.265 0 13.008 -390.929 0 6.49012 -404.606 0 0 
</DataArray>
</Points>
<PointData>
<DataArray Name="velocity_mag" format="ascii" type="Float32">
0.0434937 0.0542204 0.0656173 0.0710423 0.0702129 0.0690472 0.0714691 0.0751418 0 0.0278224 0.0727301 0.0708114 0.0712983 0.0710235 0.0627671 0.0665666 0.0364675 0.0549197 0.0152065 0.0720702 0.0605394 0.047906 0.0204984 0.0481601 0.0578987 0.0385802 0.0606293 0.0268476 0.0146422 0.00572118 0 
</DataArray>
</PointData>
<CellData Normals="cell_normals" Scalars="cell_scalars">
<DataArray Name="tension" format="ascii" type="Float32">
5.08932e+06 5.09445e+06 5.09966e+06 5.10474e+06 5.10956e+06 5.11413e+06 5.11865e+06 5.12345e+06 5.12884e+06 5.13500e+06 5.14185e+06 5.14909e+06 5.15629e+06 5.1631e+06 5.16934e+06 5.17507e+06 5.18054e+06 5.18602e+06 5.19172e+06 5.19767e+06 5.20371e+06 5.2096e+06 5.21512e+06 5.22014e+06 5.22473e+06 5.22905e+06 5.23335e+06 5.23783e+06 5.24256e+06 5.24975e+06 
</DataArray>
<DataArray Name="strain" format="ascii" type="Float32">
0.00274357 0.00274633 0.00274914 0.00275188 0.00275448 0.00275694 0.00275938 0.00276197 0.00276488 0.0027682 0.00277189 0.00277579 0.00277967 0.00278334 0.0027867 0.0027898 0.00279274 0.0027957 0.00279877 0.00280198 0.00280523 0.00280841 0.00281138 0.00281409 0.00281656 0.00281889 0.00282121 0.00282363 0.00282618 0.00283005 
</DataArray>
</CellData>
<Polys>
<DataArray Name="connectivity" format="ascii" type="Int32">

</DataArray>
<DataArray Name="offsets" format="ascii" type="Int32">

</DataArray>
</Polys>
<Lines>
<DataArray Name="connectivity" format="ascii" type="Int32">
30 29 29 28 28 27 27 25 25 21 21 17 17 20 20 15 15 13 13 12 12 11 11 19 19 10 10 7 7 6 6 4 4 3 3 5 5 2 2 14 14 26 26 24 24 1 1 23 23 0 0 16 16 9 9 22 22 18 18 8 
</DataArray>
<DataArray Name="offsets" format="ascii" type="Int32">
2 4 6 8 10 12 14 16 18 20 22 24 26 28 30 32 34 36 38 40 42 44 46 48 50 52 54 56 58 60 
</DataArray>
</Lines>
</Piece>
</PolyData>
</VTKFile>
