<?xml version="1.0"?>
<VTKFile byte_order="LittleEndian" type="PolyData" version="0.1">
<PolyData>
<Piece NumberOfLines="30" NumberOfPoints="31" NumberOfPolys="0" NumberOfStrips="0" NumberOfVerts="0">
<Points>
<DataArray NumberOfComponents="3" format="ascii" type="Float32">
-33.0793 0 198.336 -66.2298 0 183.136 -99.451 0 168.092 -116.088 0 160.629 -166.103 0 138.474 -149.414 0 145.819 -182.81 0 131.168 -216.274 0 116.674 -49.6456 0 190.717 -199.533 0 123.901 -233.031 0 109.487 -249.806 0 102.339 -266.598 0 95.2314 -283.406 0 88.1638 -300.231 0 81.1365 -317.073 0 74.1494 -350.807 0 60.297 0 0 213.691 -367.699 0 53.4319 -401.532 0 39.8249 -418.473 0 33.0832 -435.431 0 26.3831 -452.405 0 19.7245 -16.5307 0 205.994 -82.8316 0 175.595 -132.742 0 153.204 -384.607 0 46.6078 -469.395 0 13.1077 -486.401 0 6.53284 -333.932 0 67.2029 -503.424 0 0 
</DataArray>
</Points>
<PointData>
<DataArray Name="velocity_mag" format="ascii" type="Float32">
0.0017721 0.00356776 0.00532741 0.00616599 0.00834607 0.00769068 0.0089097 0.00970698 0.00266989 0.00936741 0.00991889 0.0099969 0.00993855 0.00974524 0.00942221 0.00897818 0.00777568 0 0.00704614 0.00540806 0.00452945 0.00362901 0.00271793 0.000880748 0.00445715 0.00695879 0.00625179 0.00180524 0.000897764 0.00842474 0 
</DataArray>
</PointData>
<CellData Normals="cell_normals" Scalars="cell_scalars">
<DataArray Name="tension" format="ascii" type="Float32">
6.14826e+06 6.15411e+06 6.16e+06 6.16593e+06 6.1719e+06 6.1779e+06 6.18394e+06 6.19002e+06 6.19613e+06 6.20228e+06 6.20846e+06 6.21469e+06 6.22095e+06 6.22724e+06 6.23357e+06 6.23994e+06 6.24634e+06 6.25277e+06 6.25924e+06 6.26575e+06 6.27229e+06 6.27887e+06 6.28548e+06 6.29213e+06 6.29881e+06 6.30553e+06 6.31228e+06 6.31907e+06 6.32589e+06 6.33275e+06 
</DataArray>
<DataArray Name="strain" format="ascii" type="Float32">
0.00282263 0.00282532 0.00282802 0.00283075 0.00283348 0.00283624 0.00283901 0.0028418 0.00284461 0.00284743 0.00285027 0.00285313 0.002856 0.00285889 0.0028618 0.00286472 0.00286766 0.00287061 0.00287359 0.00287657 0.00287958 0.0028826 0.00288563 0.00288868 0.00289175 0.00289484 0.00289794 0.00290105 0.00290418 0.00290733 
</DataArray>
</CellData>
<Polys>
<DataArray Name="connectivity" format="ascii" type="Int32">

</DataArray>
<DataArray Name="offsets" format="ascii" type="Int32">

</DataArray>
</Polys>
<Lines>
<DataArray Name="connectivity" format="ascii" type="Int32">
30 28 28 27 27 22 22 21 21 20 20 19 19 26 26 18 18 16 16 29 29 15 15 14 14 13 13 12 12 11 11 10 10 7 7 9 9 6 6 4 4 5 5 25 25 3 3 2 2 24 24 1 1 8 8 0 0 23 23 17 
</DataArray>
<DataArray Name="offsets" format="ascii" type="Int32">
2 4 6 8 10 12 14 16 18 20 22 24 26 28 30 32 34 36 38 40 42 44 46 48 50 52 54 56 58 60 
</DataArray>
</Lines>
</Piece>
</PolyData>
</VTKFile>
