<?xml version="1.0"?>
<VTKFile byte_order="LittleEndian" type="PolyData" version="0.1">
<PolyData>
<Piece NumberOfLines="30" NumberOfPoints="31" NumberOfPolys="0" NumberOfStrips="0" NumberOfVerts="0">
<Points>
<DataArray NumberOfComponents="3" format="ascii" type="Float32">
-33.0952 0 198.338 -66.2457 0 183.14 -99.4671 0 168.099 -116.104 0 160.637 -166.119 0 138.486 -149.43 0 145.83 -182.826 0 131.181 -216.289 0 116.688 -49.6616 0 190.719 -199.549 0 123.915 -233.046 0 109.5 -249.82 0 102.352 -266.611 0 95.2442 -283.418 0 88.1758 -300.243 0 81.1475 -317.084 0 74.1595 -350.816 0 60.3053 -0.0163233 0 213.691 -367.706 0 53.4392 -401.537 0 39.8295 -418.477 0 33.0863 -435.434 0 26.3852 -452.407 0 19.7258 -16.5468 0 205.995 -82.8476 0 175.6 -132.759 0 153.214 -384.614 0 46.6139 -469.396 0 13.1083 -486.402 0 6.53283 -333.941 0 67.2121 -503.424 0 0 
</DataArray>
</Points>
<PointData>
<DataArray Name="velocity_mag" format="ascii" type="Float32">
0.0352888 0.0612014 0.0895117 0.104154 0.137779 0.128627 0.145045 0.155107 0.0471627 0.152195 0.159258 0.160151 0.158266 0.15597 0.147381 0.138598 0.11831 0 0.112537 0.0935116 0.0795513 0.0637588 0.0479984 0.027154 0.0758414 0.116211 0.105439 0.0337373 0.0208534 0.129576 0 
</DataArray>
</PointData>
<CellData Normals="cell_normals" Scalars="cell_scalars">
<DataArray Name="tension" format="ascii" type="Float32">
6.07827e+06 6.08345e+06 6.08842e+06 6.09382e+06 6.10022e+06 6.1079e+06 6.11672e+06 6.12602e+06 6.13482e+06 6.14233e+06 6.14857e+06 6.15441e+06 6.1609e+06 6.16848e+06 6.17669e+06 6.18466e+06 6.19169e+06 6.19755e+06 6.20242e+06 6.20678e+06 6.21131e+06 6.21652e+06 6.22247e+06 6.2288e+06 6.23525e+06 6.24216e+06 6.25019e+06 6.2596e+06 6.26966e+06 6.2744e+06 
</DataArray>
<DataArray Name="strain" format="ascii" type="Float32">
0.0027905 0.00279288 0.00279516 0.00279764 0.00280058 0.0028041 0.00280815 0.00281243 0.00281646 0.00281991 0.00282278 0.00282546 0.00282844 0.00283192 0.00283569 0.00283934 0.00284257 0.00284526 0.0028475 0.0028495 0.00285158 0.00285397 0.0028567 0.00285961 0.00286257 0.00286574 0.00286943 0.00287375 0.00287837 0.00288054 
</DataArray>
</CellData>
<Polys>
<DataArray Name="connectivity" format="ascii" type="Int32">

</DataArray>
<DataArray Name="offsets" format="ascii" type="Int32">

</DataArray>
</Polys>
<Lines>
<DataArray Name="connectivity" format="ascii" type="Int32">
30 28 28 27 27 22 22 21 21 20 20 19 19 26 26 18 18 16 16 29 29 15 15 14 14 13 13 12 12 11 11 10 10 7 7 9 9 6 6 4 4 5 5 25 25 3 3 2 2 24 24 1 1 8 8 0 0 23 23 17 
</DataArray>
<DataArray Name="offsets" format="ascii" type="Int32">
2 4 6 8 10 12 14 16 18 20 22 24 26 28 30 32 34 36 38 40 42 44 46 48 50 52 54 56 58 60 
</DataArray>
</Lines>
</Piece>
</PolyData>
</VTKFile>
