<?xml version="1.0"?>
<VTKFile byte_order="LittleEndian" type="PolyData" version="0.1">
<PolyData>
<Piece NumberOfLines="30" NumberOfPoints="31" NumberOfPolys="0" NumberOfStrips="0" NumberOfVerts="0">
<Points>
<DataArray NumberOfComponents="3" format="ascii" type="Float32">
-33.0538 0 198.339 -66.2066 0 183.14 -99.4293 0 168.095 -116.067 0 160.63 -166.084 0 138.472 -149.394 0 145.819 -182.791 0 131.165 -216.256 0 116.671 -49.6214 0 190.72 -199.515 0 123.898 -233.015 0 109.483 -249.79 0 102.335 -266.583 0 95.2278 -283.392 0 88.1606 -300.219 0 81.1339 -317.062 0 74.1479 -350.799 0 60.298 0.0286251 0 213.691 -367.692 0 53.4342 -401.528 0 39.8291 -418.47 0 33.0881 -435.429 0 26.3881 -452.404 0 19.7291 -16.5038 0 205.996 -82.8092 0 175.598 -132.722 0 153.205 -384.602 0 46.6112 -469.395 0 13.1115 -486.401 0 6.53505 -333.922 0 67.2026 -503.424 0 0 
</DataArray>
</Points>
<PointData>
<DataArray Name="velocity_mag" format="ascii" type="Float32">
0.0175826 0.0134865 0.0152233 0.0187823 0.028674 0.0257842 0.0281033 0.0311997 0.0162828 0.0283296 0.0355131 0.0389187 0.0412361 0.0436969 0.0468757 0.0492047 0.0461789 0 0.0435542 0.0364339 0.0295005 0.0214322 0.0155692 0.0152028 0.0118071 0.0212022 0.040868 0.0116697 0.00636706 0.048746 0 
</DataArray>
</PointData>
<CellData Normals="cell_normals" Scalars="cell_scalars">
<DataArray Name="tension" format="ascii" type="Float32">
6.24474e+06 6.25143e+06 6.25873e+06 6.26638e+06 6.27427e+06 6.28241e+06 6.29071e+06 6.29886e+06 6.30634e+06 6.3126e+06 6.31753e+06 6.32184e+06 6.32655e+06 6.33195e+06 6.33748e+06 6.34303e+06 6.34964e+06 6.35798e+06 6.36696e+06 6.37458e+06 6.38003e+06 6.38424e+06 6.38887e+06 6.39514e+06 6.40314e+06 6.41178e+06 6.41956e+06 6.4257e+06 6.43077e+06 6.43789e+06 
</DataArray>
<DataArray Name="strain" format="ascii" type="Float32">
0.00286693 0.00287 0.00287335 0.00287686 0.00288048 0.00288422 0.00288803 0.00289177 0.00289521 0.00289808 0.00290035 0.00290232 0.00290448 0.00290696 0.0029095 0.00291205 0.00291508 0.00291892 0.00292304 0.00292654 0.00292904 0.00293097 0.0029331 0.00293597 0.00293965 0.00294362 0.00294718 0.00295001 0.00295233 0.0029556 
</DataArray>
</CellData>
<Polys>
<DataArray Name="connectivity" format="ascii" type="Int32">

</DataArray>
<DataArray Name="offsets" format="ascii" type="Int32">

</DataArray>
</Polys>
<Lines>
<DataArray Name="connectivity" format="ascii" type="Int32">
30 28 28 27 27 22 22 21 21 20 20 19 19 26 26 18 18 16 16 29 29 15 15 14 14 13 13 12 12 11 11 10 10 7 7 9 9 6 6 4 4 5 5 25 25 3 3 2 2 24 24 1 1 8 8 0 0 23 23 17 
</DataArray>
<DataArray Name="offsets" format="ascii" type="Int32">
2 4 6 8 10 12 14 16 18 20 22 24 26 28 30 32 34 36 38 40 42 44 46 48 50 52 54 56 58 60 
</DataArray>
</Lines>
</Piece>
</PolyData>
</VTKFile>
