<?xml version="1.0"?>
<VTKFile byte_order="LittleEndian" type="PolyData" version="0.1">
<PolyData>
<Piece NumberOfLines="30" NumberOfPoints="31" NumberOfPolys="0" NumberOfStrips="0" NumberOfVerts="0">
<Points>
<DataArray NumberOfComponents="3" format="ascii" type="Float32">
-33.0784 0 198.271 -66.1999 0 183.009 -99.3948 0 167.909 -116.02 0 160.419 -166.005 0 138.199 -149.325 0 145.564 -182.704 0 130.877 -216.157 0 116.36 -49.63 0 190.62 -199.421 0 123.597 -232.912 0 109.166 -249.685 0 102.016 -266.476 0 94.909 -283.286 0 87.8459 -300.114 0 80.8264 -316.96 0 73.8507 -350.707 0 60.0313 -0.0300191 0 213.691 -367.606 0 53.1872 -401.459 0 39.6303 -418.411 0 32.9173 -435.38 0 26.2478 -452.366 0 19.6214 -16.5451 0 205.961 -82.7882 0 175.439 -132.663 0 152.971 -384.524 0 46.3869 -469.369 0 13.0382 -486.388 0 6.49774 -333.824 0 66.919 -503.424 0 0 
</DataArray>
</Points>
<PointData>
<DataArray Name="velocity_mag" format="ascii" type="Float32">
0.00963646 0.0225823 0.0366482 0.0413933 0.0589354 0.0526163 0.0601659 0.0565661 0.0169282 0.0595862 0.0559961 0.0591674 0.0583491 0.0576558 0.0551916 0.0544116 0.0531505 0 0.0488748 0.0418375 0.0374061 0.0324508 0.0212994 0.00544593 0.0320129 0.0487452 0.0437084 0.0174941 0.0100908 0.0524732 0 
</DataArray>
</PointData>
<CellData Normals="cell_normals" Scalars="cell_scalars">
<DataArray Name="tension" format="ascii" type="Float32">
6.09115e+06 6.09802e+06 6.1057e+06 6.11369e+06 6.12149e+06 6.12874e+06 6.13531e+06 6.14134e+06 6.14711e+06 6.15289e+06 6.15888e+06 6.16519e+06 6.17188e+06 6.17905e+06 6.18671e+06 6.19467e+06 6.20254e+06 6.20986e+06 6.21641e+06 6.22246e+06 6.22869e+06 6.23588e+06 6.24441e+06 6.25398e+06 6.26381e+06 6.27301e+06 6.28109e+06 6.28811e+06 6.29456e+06 6.30178e+06 
</DataArray>
<DataArray Name="strain" format="ascii" type="Float32">
0.00279642 0.00279957 0.00280309 0.00280676 0.00281035 0.00281367 0.00281669 0.00281946 0.00282211 0.00282476 0.00282751 0.0028304 0.00283348 0.00283677 0.00284028 0.00284394 0.00284755 0.00285091 0.00285392 0.0028567 0.00285956 0.00286286 0.00286677 0.00287117 0.00287568 0.00287991 0.00288361 0.00288684 0.0028898 0.00289311 
</DataArray>
</CellData>
<Polys>
<DataArray Name="connectivity" format="ascii" type="Int32">

</DataArray>
<DataArray Name="offsets" format="ascii" type="Int32">

</DataArray>
</Polys>
<Lines>
<DataArray Name="connectivity" format="ascii" type="Int32">
30 28 28 27 27 22 22 21 21 20 20 19 19 26 26 18 18 16 16 29 29 15 15 14 14 13 13 12 12 11 11 10 10 7 7 9 9 6 6 4 4 5 5 25 25 3 3 2 2 24 24 1 1 8 8 0 0 23 23 17 
</DataArray>
<DataArray Name="offsets" format="ascii" type="Int32">
2 4 6 8 10 12 14 16 18 20 22 24 26 28 30 32 34 36 38 40 42 44 46 48 50 52 54 56 58 60 
</DataArray>
</Lines>
</Piece>
</PolyData>
</VTKFile>
