<?xml version="1.0"?>
<VTKFile byte_order="LittleEndian" type="PolyData" version="0.1">
<PolyData>
<Piece NumberOfLines="30" NumberOfPoints="31" NumberOfPolys="0" NumberOfStrips="0" NumberOfVerts="0">
<Points>
<DataArray NumberOfComponents="3" format="ascii" type="Float32">
-33.0855 0 198.334 -66.2343 0 183.131 -99.4538 0 168.085 -116.09 0 160.621 -166.104 0 138.464 -149.415 0 145.81 -182.81 0 131.157 -216.274 0 116.664 -49.6511 0 190.713 -199.533 0 123.891 -233.031 0 109.477 -249.806 0 102.33 -266.597 0 95.2222 -283.405 0 88.155 -300.23 0 81.1279 -317.072 0 74.1414 -350.806 0 60.2899 -0.00814189 0 213.691 -367.698 0 53.4253 -401.531 0 39.8192 -418.472 0 33.0782 -435.43 0 26.379 -452.404 0 19.7211 -16.5379 0 205.993 -82.8352 0 175.589 -132.744 0 153.196 -384.606 0 46.6016 -469.394 0 13.1053 -486.401 0 6.53135 -333.931 0 67.1953 -503.424 0 0 
</DataArray>
</Points>
<PointData>
<DataArray Name="velocity_mag" format="ascii" type="Float32">
0.0293912 0.0298942 0.029663 0.0269544 0.012982 0.0163039 0.00869478 0.00534461 0.0292989 0.00761385 0.00472217 0.0045697 0.0037154 0.00367506 0.00453099 0.00586605 0.012032 0 0.0148851 0.0198033 0.0190934 0.0176008 0.0144337 0.0306999 0.0304478 0.022204 0.0168703 0.0105496 0.00483921 0.00763575 0 
</DataArray>
</PointData>
<CellData Normals="cell_normals" Scalars="cell_scalars">
<DataArray Name="tension" format="ascii" type="Float32">
6.12218e+06 6.12869e+06 6.13556e+06 6.14230e+06 6.1485e+06 6.15398e+06 6.15892e+06 6.16368e+06 6.16867e+06 6.17418e+06 6.18026e+06 6.18682e+06 6.19371e+06 6.20081e+06 6.20806e+06 6.21541e+06 6.22274e+06 6.22986e+06 6.23652e+06 6.24249e+06 6.2477e+06 6.25225e+06 6.25642e+06 6.2606e+06 6.26517e+06 6.27038e+06 6.27631e+06 6.28282e+06 6.28975e+06 6.29176e+06 
</DataArray>
<DataArray Name="strain" format="ascii" type="Float32">
0.00281066 0.00281365 0.0028168 0.0028199 0.00282274 0.00282526 0.00282753 0.00282971 0.00283201 0.00283453 0.00283732 0.00284034 0.0028435 0.00284676 0.00285009 0.00285346 0.00285683 0.0028601 0.00286315 0.00286589 0.00286829 0.00287037 0.00287229 0.00287421 0.0028763 0.0028787 0.00288142 0.00288441 0.00288759 0.00288851 
</DataArray>
</CellData>
<Polys>
<DataArray Name="connectivity" format="ascii" type="Int32">

</DataArray>
<DataArray Name="offsets" format="ascii" type="Int32">

</DataArray>
</Polys>
<Lines>
<DataArray Name="connectivity" format="ascii" type="Int32">
30 28 28 27 27 22 22 21 21 20 20 19 19 26 26 18 18 16 16 29 29 15 15 14 14 13 13 12 12 11 11 10 10 7 7 9 9 6 6 4 4 5 5 25 25 3 3 2 2 24 24 1 1 8 8 0 0 23 23 17 
</DataArray>
<DataArray Name="offsets" format="ascii" type="Int32">
2 4 6 8 10 12 14 16 18 20 22 24 26 28 30 32 34 36 38 40 42 44 46 48 50 52 54 56 58 60 
</DataArray>
</Lines>
</Piece>
</PolyData>
</VTKFile>
