<?xml version="1.0"?>
<VTKFile byte_order="LittleEndian" type="PolyData" version="0.1">
<PolyData>
<Piece NumberOfLines="30" NumberOfPoints="31" NumberOfPolys="0" NumberOfStrips="0" NumberOfVerts="0">
<Points>
<DataArray NumberOfComponents="3" format="ascii" type="Float32">
-33.0999 0 198.319 -66.2415 0 183.104 -99.4548 0 168.046 -116.088 0 160.576 -166.094 0 138.405 -149.408 0 145.756 -182.798 0 131.095 -216.257 0 116.595 -49.6617 0 190.692 -199.519 0 123.825 -233.014 0 109.406 -249.787 0 102.258 -266.578 0 95.1504 -283.386 0 88.0837 -300.211 0 81.0581 -317.053 0 74.0733 -350.788 0 60.228 -0.030241 0 213.691 -367.681 0 53.3677 -401.517 0 39.7725 -418.46 0 33.0381 -435.42 0 26.3455 -452.396 0 19.6956 -16.5561 0 205.986 -82.8392 0 175.555 -132.739 0 153.146 -384.59 0 46.5491 -469.389 0 13.0877 -486.398 0 6.52248 -333.912 0 67.1299 -503.424 0 0 
</DataArray>
</Points>
<PointData>
<DataArray Name="velocity_mag" format="ascii" type="Float32">
0.026422 0.049878 0.0731838 0.0852951 0.110489 0.107137 0.116438 0.128035 0.0376754 0.123342 0.13092 0.133524 0.132299 0.128981 0.126973 0.122377 0.11105 0 0.101985 0.0878517 0.0771399 0.0627616 0.046809 0.0157914 0.0606401 0.0990057 0.0964333 0.0346308 0.0172008 0.117508 0 
</DataArray>
</PointData>
<CellData Normals="cell_normals" Scalars="cell_scalars">
<DataArray Name="tension" format="ascii" type="Float32">
6.0406e+06 6.04742e+06 6.05522e+06 6.0638e+06 6.07284e+06 6.08184e+06 6.09032e+06 6.09795e+06 6.1047e+06 6.11083e+06 6.1167e+06 6.12264e+06 6.12881e+06 6.13515e+06 6.14151e+06 6.14778e+06 6.15394e+06 6.1601e+06 6.16639e+06 6.1729e+06 6.17961e+06 6.18642e+06 6.19321e+06 6.19983e+06 6.20625e+06 6.21249e+06 6.21864e+06 6.22484e+06 6.23122e+06 6.23754e+06 
</DataArray>
<DataArray Name="strain" format="ascii" type="Float32">
0.00277321 0.00277634 0.00277992 0.00278386 0.00278801 0.00279214 0.00279603 0.00279954 0.00280264 0.00280545 0.00280814 0.00281087 0.0028137 0.00281661 0.00281953 0.00282241 0.00282524 0.00282807 0.00283096 0.00283394 0.00283703 0.00284015 0.00284327 0.00284631 0.00284926 0.00285212 0.00285494 0.00285779 0.00286072 0.00286362 
</DataArray>
</CellData>
<Polys>
<DataArray Name="connectivity" format="ascii" type="Int32">

</DataArray>
<DataArray Name="offsets" format="ascii" type="Int32">

</DataArray>
</Polys>
<Lines>
<DataArray Name="connectivity" format="ascii" type="Int32">
30 28 28 27 27 22 22 21 21 20 20 19 19 26 26 18 18 16 16 29 29 15 15 14 14 13 13 12 12 11 11 10 10 7 7 9 9 6 6 4 4 5 5 25 25 3 3 2 2 24 24 1 1 8 8 0 0 23 23 17 
</DataArray>
<DataArray Name="offsets" format="ascii" type="Int32">
2 4 6 8 10 12 14 16 18 20 22 24 26 28 30 32 34 36 38 40 42 44 46 48 50 52 54 56 58 60 
</DataArray>
</Lines>
</Piece>
</PolyData>
</VTKFile>
