<?xml version="1.0"?>
<VTKFile byte_order="LittleEndian" type="PolyData" version="0.1">
<PolyData>
<Piece NumberOfLines="30" NumberOfPoints="31" NumberOfPolys="0" NumberOfStrips="0" NumberOfVerts="0">
<Points>
<DataArray NumberOfComponents="3" format="ascii" type="Float32">
-33.0893 0 198.297 -66.2217 0 183.062 -99.4271 0 167.986 -116.057 0 160.508 -166.055 0 138.319 -149.371 0 145.675 -182.757 0 131.004 -216.215 0 116.499 -49.6464 0 190.66 -199.477 0 123.731 -232.971 0 109.308 -249.744 0 102.159 -266.535 0 95.0522 -283.344 0 87.9871 -300.17 0 80.9643 -317.014 0 73.9835 -350.754 0 60.1489 -0.0294663 0 213.691 -367.65 0 53.2953 -401.493 0 39.7158 -418.44 0 32.9899 -435.404 0 26.3067 -452.384 0 19.666 -16.5503 0 205.975 -82.8153 0 175.503 -132.705 0 153.071 -384.563 0 46.4843 -469.381 0 13.0679 -486.394 0 6.5127 -333.876 0 67.045 -503.424 0 0 
</DataArray>
</Points>
<PointData>
<DataArray Name="velocity_mag" format="ascii" type="Float32">
0.0407964 0.0724078 0.0995333 0.11263 0.15553 0.142816 0.163661 0.171509 0.0580594 0.167767 0.175329 0.180537 0.180785 0.177069 0.172314 0.167587 0.150449 0 0.138592 0.11302 0.0953462 0.079323 0.0599551 0.0242669 0.086122 0.128718 0.128781 0.0410764 0.0194951 0.161521 0 
</DataArray>
</PointData>
<CellData Normals="cell_normals" Scalars="cell_scalars">
<DataArray Name="tension" format="ascii" type="Float32">
6.0765e+06 6.08318e+06 6.09025e+06 6.09703e+06 6.10317e+06 6.1088e+06 6.11442e+06 6.12050e+06 6.12712e+06 6.13401e+06 6.1409e+06 6.14778e+06 6.15486e+06 6.16214e+06 6.16918e+06 6.17533e+06 6.18025e+06 6.18424e+06 6.18809e+06 6.19248e+06 6.19759e+06 6.20312e+06 6.20879e+06 6.21456e+06 6.22058e+06 6.22686e+06 6.23318e+06 6.23933e+06 6.24535e+06 6.25286e+06 
</DataArray>
<DataArray Name="strain" format="ascii" type="Float32">
0.00278969 0.00279276 0.002796 0.00279911 0.00280193 0.00280452 0.0028071 0.00280989 0.00281293 0.00281609 0.00281925 0.00282241 0.00282566 0.002829 0.00283224 0.00283506 0.00283732 0.00283915 0.00284092 0.00284294 0.00284528 0.00284782 0.00285042 0.00285307 0.00285583 0.00285872 0.00286162 0.00286444 0.00286721 0.00287065 
</DataArray>
</CellData>
<Polys>
<DataArray Name="connectivity" format="ascii" type="Int32">

</DataArray>
<DataArray Name="offsets" format="ascii" type="Int32">

</DataArray>
</Polys>
<Lines>
<DataArray Name="connectivity" format="ascii" type="Int32">
30 28 28 27 27 22 22 21 21 20 20 19 19 26 26 18 18 16 16 29 29 15 15 14 14 13 13 12 12 11 11 10 10 7 7 9 9 6 6 4 4 5 5 25 25 3 3 2 2 24 24 1 1 8 8 0 0 23 23 17 
</DataArray>
<DataArray Name="offsets" format="ascii" type="Int32">
2 4 6 8 10 12 14 16 18 20 22 24 26 28 30 32 34 36 38 40 42 44 46 48 50 52 54 56 58 60 
</DataArray>
</Lines>
</Piece>
</PolyData>
</VTKFile>
