<?xml version="1.0"?>
<VTKFile byte_order="LittleEndian" type="PolyData" version="0.1">
<PolyData>
<Piece NumberOfLines="30" NumberOfPoints="31" NumberOfPolys="0" NumberOfStrips="0" NumberOfVerts="0">
<Points>
<DataArray NumberOfComponents="3" format="ascii" type="Float32">
-33.092 0 198.346 -66.2461 0 183.155 -99.4705 0 168.119 -116.109 0 160.66 -166.127 0 138.512 -149.437 0 145.856 -182.834 0 131.208 -216.298 0 116.717 -49.6602 0 190.731 -199.557 0 123.943 -233.055 0 109.53 -249.83 0 102.382 -266.62 0 95.274 -283.428 0 88.2053 -300.252 0 81.1767 -317.093 0 74.188 -350.824 0 60.3309 -0.00886363 0 213.691 -367.714 0 53.4626 -401.543 0 39.848 -418.483 0 33.1024 -435.438 0 26.398 -452.41 0 19.7355 -16.5416 0 205.999 -82.8495 0 175.618 -132.764 0 153.238 -384.62 0 46.6349 -469.398 0 13.1148 -486.403 0 6.53632 -333.95 0 67.2394 -503.424 0 0 
</DataArray>
</Points>
<PointData>
<DataArray Name="velocity_mag" format="ascii" type="Float32">
0.031184 0.0430359 0.064621 0.0734283 0.103203 0.095596 0.106901 0.116469 0.0373201 0.113215 0.121051 0.12503 0.122461 0.118219 0.113144 0.110944 0.0972622 0 0.09093 0.0748869 0.0590465 0.0500228 0.0374098 0.0294139 0.0551435 0.0856112 0.0838606 0.0241245 0.0118915 0.103518 0 
</DataArray>
</PointData>
<CellData Normals="cell_normals" Scalars="cell_scalars">
<DataArray Name="tension" format="ascii" type="Float32">
6.10432e+06 6.10938e+06 6.11405e+06 6.11886e+06 6.12421e+06 6.1302e+06 6.13664e+06 6.14321e+06 6.14968e+06 6.15595e+06 6.16208e+06 6.16815e+06 6.17424e+06 6.18048e+06 6.18706e+06 6.19423e+06 6.20223e+06 6.21111e+06 6.2206e+06 6.2302e+06 6.23929e+06 6.2474e+06 6.25435e+06 6.26036e+06 6.26589e+06 6.27147e+06 6.27746e+06 6.28399e+06 6.29083e+06 6.30275e+06 
</DataArray>
<DataArray Name="strain" format="ascii" type="Float32">
0.00280246 0.00280478 0.00280693 0.00280914 0.00281159 0.00281434 0.0028173 0.00282032 0.00282329 0.00282617 0.00282898 0.00283176 0.00283456 0.00283743 0.00284045 0.00284374 0.00284741 0.00285149 0.00285584 0.00286025 0.00286443 0.00286815 0.00287134 0.0028741 0.00287664 0.0028792 0.00288195 0.00288495 0.00288809 0.00289356 
</DataArray>
</CellData>
<Polys>
<DataArray Name="connectivity" format="ascii" type="Int32">

</DataArray>
<DataArray Name="offsets" format="ascii" type="Int32">

</DataArray>
</Polys>
<Lines>
<DataArray Name="connectivity" format="ascii" type="Int32">
30 28 28 27 27 22 22 21 21 20 20 19 19 26 26 18 18 16 16 29 29 15 15 14 14 13 13 12 12 11 11 10 10 7 7 9 9 6 6 4 4 5 5 25 25 3 3 2 2 24 24 1 1 8 8 0 0 23 23 17 
</DataArray>
<DataArray Name="offsets" format="ascii" type="Int32">
2 4 6 8 10 12 14 16 18 20 22 24 26 28 30 32 34 36 38 40 42 44 46 48 50 52 54 56 58 60 
</DataArray>
</Lines>
</Piece>
</PolyData>
</VTKFile>
