<?xml version="1.0"?>
<VTKFile byte_order="LittleEndian" type="PolyData" version="0.1">
<PolyData>
<Piece NumberOfLines="30" NumberOfPoints="31" NumberOfPolys="0" NumberOfStrips="0" NumberOfVerts="0">
<Points>
<DataArray NumberOfComponents="3" format="ascii" type="Float32">
-33.0652 0 198.363 -66.2281 0 183.187 -99.4604 0 168.165 -116.102 0 160.711 -166.13 0 138.579 -149.437 0 145.918 -182.839 0 131.279 -216.308 0 116.793 -49.6379 0 190.756 -199.566 0 124.016 -233.068 0 109.608 -249.844 0 102.462 -266.636 0 95.3538 -283.444 0 88.2849 -300.269 0 81.255 -317.11 0 74.2642 -350.841 0 60.4013 0.0275039 0 213.691 -367.731 0 53.5293 -401.559 0 39.9046 -418.496 0 33.1523 -435.45 0 26.4402 -452.42 0 19.7687 -16.5101 0 206.008 -82.8357 0 175.657 -132.761 0 153.295 -384.637 0 46.6971 -469.405 0 13.1379 -486.407 0 6.54826 -333.968 0 67.313 -503.424 0 0 
</DataArray>
</Points>
<PointData>
<DataArray Name="velocity_mag" format="ascii" type="Float32">
0.0673352 0.13175 0.192238 0.220151 0.279024 0.260343 0.29598 0.310513 0.100404 0.304239 0.314677 0.315365 0.317332 0.313659 0.305176 0.290596 0.255097 0 0.234719 0.189413 0.165735 0.136566 0.10499 0.0332401 0.160985 0.241025 0.214569 0.0725517 0.0365442 0.274848 0 
</DataArray>
</PointData>
<CellData Normals="cell_normals" Scalars="cell_scalars">
<DataArray Name="tension" format="ascii" type="Float32">
6.22777e+06 6.23284e+06 6.23786e+06 6.24374e+06 6.25094e+06 6.2592e+06 6.26781e+06 6.27603e+06 6.28346e+06 6.29003e+06 6.29576e+06 6.3007e+06 6.30493e+06 6.30871e+06 6.31246e+06 6.31656e+06 6.32116e+06 6.32619e+06 6.3315e+06 6.33707e+06 6.34302e+06 6.34945e+06 6.3563e+06 6.36332e+06 6.3701e+06 6.37622e+06 6.38147e+06 6.38605e+06 6.39058e+06 6.39813e+06 
</DataArray>
<DataArray Name="strain" format="ascii" type="Float32">
0.00285914 0.00286146 0.00286377 0.00286647 0.00286977 0.00287357 0.00287752 0.00288129 0.0028847 0.00288772 0.00289035 0.00289262 0.00289456 0.0028963 0.00289802 0.0028999 0.00290201 0.00290432 0.00290676 0.00290932 0.00291205 0.002915 0.00291814 0.00292137 0.00292448 0.00292729 0.0029297 0.0029318 0.00293388 0.00293735 
</DataArray>
</CellData>
<Polys>
<DataArray Name="connectivity" format="ascii" type="Int32">

</DataArray>
<DataArray Name="offsets" format="ascii" type="Int32">

</DataArray>
</Polys>
<Lines>
<DataArray Name="connectivity" format="ascii" type="Int32">
30 28 28 27 27 22 22 21 21 20 20 19 19 26 26 18 18 16 16 29 29 15 15 14 14 13 13 12 12 11 11 10 10 7 7 9 9 6 6 4 4 5 5 25 25 3 3 2 2 24 24 1 1 8 8 0 0 23 23 17 
</DataArray>
<DataArray Name="offsets" format="ascii" type="Int32">
2 4 6 8 10 12 14 16 18 20 22 24 26 28 30 32 34 36 38 40 42 44 46 48 50 52 54 56 58 60 
</DataArray>
</Lines>
</Piece>
</PolyData>
</VTKFile>
