<?xml version="1.0"?>
<VTKFile byte_order="LittleEndian" type="PolyData" version="0.1">
<PolyData>
<Piece NumberOfLines="30" NumberOfPoints="31" NumberOfPolys="0" NumberOfStrips="0" NumberOfVerts="0">
<Points>
<DataArray NumberOfComponents="3" format="ascii" type="Float32">
-33.0669 0 198.302 -66.2022 0 183.068 -99.4097 0 167.993 -116.04 0 160.515 -166.041 0 138.323 -149.356 0 145.68 -182.743 0 131.008 -216.202 0 116.5 -49.6256 0 190.666 -199.464 0 123.733 -232.958 0 109.309 -249.732 0 102.16 -266.524 0 95.0524 -283.334 0 87.9875 -300.161 0 80.9648 -317.006 0 73.9845 -350.748 0 60.1516 -0.0029935 0 213.691 -367.645 0 53.2988 -401.49 0 39.7206 -418.438 0 32.9949 -435.402 0 26.3116 -452.383 0 19.6705 -16.5261 0 205.977 -82.797 0 175.511 -132.689 0 153.077 -384.559 0 46.4885 -469.381 0 13.0715 -486.394 0 6.51476 -333.868 0 67.0468 -503.424 0 0 
</DataArray>
</Points>
<PointData>
<DataArray Name="velocity_mag" format="ascii" type="Float32">
0.0408091 0.0819307 0.113612 0.127679 0.174928 0.161322 0.186083 0.206562 0.0612092 0.198606 0.209397 0.211864 0.211948 0.209699 0.202598 0.197647 0.176836 0 0.165787 0.133151 0.114635 0.094436 0.0715039 0.0305443 0.099563 0.145123 0.151177 0.0497669 0.024512 0.189443 0 
</DataArray>
</PointData>
<CellData Normals="cell_normals" Scalars="cell_scalars">
<DataArray Name="tension" format="ascii" type="Float32">
6.16273e+06 6.16896e+06 6.17543e+06 6.1819e+06 6.18825e+06 6.19451e+06 6.20088e+06 6.20764e+06 6.21507e+06 6.22328e+06 6.23189e+06 6.24019e+06 6.24746e+06 6.25356e+06 6.25914e+06 6.26529e+06 6.27278e+06 6.28154e+06 6.29071e+06 6.29923e+06 6.30653e+06 6.3127e+06 6.31823e+06 6.32357e+06 6.32883e+06 6.33392e+06 6.33878e+06 6.3436e+06 6.34869e+06 6.35972e+06 
</DataArray>
<DataArray Name="strain" format="ascii" type="Float32">
0.00282928 0.00283214 0.00283511 0.00283808 0.00284099 0.00284387 0.00284679 0.00284989 0.00285331 0.00285707 0.00286103 0.00286484 0.00286818 0.00287097 0.00287354 0.00287636 0.0028798 0.00288382 0.00288803 0.00289194 0.0028953 0.00289813 0.00290067 0.00290312 0.00290553 0.00290787 0.0029101 0.00291231 0.00291465 0.00291971 
</DataArray>
</CellData>
<Polys>
<DataArray Name="connectivity" format="ascii" type="Int32">

</DataArray>
<DataArray Name="offsets" format="ascii" type="Int32">

</DataArray>
</Polys>
<Lines>
<DataArray Name="connectivity" format="ascii" type="Int32">
30 28 28 27 27 22 22 21 21 20 20 19 19 26 26 18 18 16 16 29 29 15 15 14 14 13 13 12 12 11 11 10 10 7 7 9 9 6 6 4 4 5 5 25 25 3 3 2 2 24 24 1 1 8 8 0 0 23 23 17 
</DataArray>
<DataArray Name="offsets" format="ascii" type="Int32">
2 4 6 8 10 12 14 16 18 20 22 24 26 28 30 32 34 36 38 40 42 44 46 48 50 52 54 56 58 60 
</DataArray>
</Lines>
</Piece>
</PolyData>
</VTKFile>
