<?xml version="1.0"?>
<VTKFile byte_order="LittleEndian" type="PolyData" version="0.1">
<PolyData>
<Piece NumberOfLines="30" NumberOfPoints="31" NumberOfPolys="0" NumberOfStrips="0" NumberOfVerts="0">
<Points>
<DataArray NumberOfComponents="3" format="ascii" type="Float32">
-33.0674 0 198.349 -66.224 0 183.161 -99.4506 0 168.126 -116.09 0 160.667 -166.111 0 138.521 -149.42 0 145.864 -182.819 0 131.217 -216.285 0 116.726 -49.6369 0 190.736 -199.543 0 123.952 -233.044 0 109.539 -249.819 0 102.392 -266.611 0 95.2845 -283.42 0 88.2167 -300.245 0 81.1887 -317.087 0 74.2003 -350.82 0 60.3442 0.0187654 0 213.691 -367.712 0 53.4764 -401.543 0 39.8619 -418.483 0 33.1158 -435.439 0 26.4107 -452.412 0 19.7465 -16.5154 0 206.001 -82.8286 0 175.624 -132.746 0 153.246 -384.619 0 46.6488 -469.4 0 13.1231 -486.404 0 6.54085 -333.946 0 67.2522 -503.424 0 0 
</DataArray>
</Points>
<PointData>
<DataArray Name="velocity_mag" format="ascii" type="Float32">
0.0358579 0.0495335 0.0601058 0.0633218 0.0731232 0.0681768 0.0754468 0.0754235 0.0421904 0.0777443 0.0697622 0.0666481 0.062404 0.0574411 0.0558537 0.0529629 0.041059 0 0.0396828 0.0269903 0.0183566 0.0136521 0.0117688 0.0302093 0.0567264 0.0647459 0.0350164 0.00915492 0.00569081 0.0458143 0 
</DataArray>
</PointData>
<CellData Normals="cell_normals" Scalars="cell_scalars">
<DataArray Name="tension" format="ascii" type="Float32">
6.20514e+06 6.21166e+06 6.21905e+06 6.22719e+06 6.23519e+06 6.24172e+06 6.24606e+06 6.24899e+06 6.25233e+06 6.25746e+06 6.26436e+06 6.27206e+06 6.27988e+06 6.28768e+06 6.2954e+06 6.30275e+06 6.30946e+06 6.31566e+06 6.32169e+06 6.32764e+06 6.33331e+06 6.33852e+06 6.34334e+06 6.34793e+06 6.35238e+06 6.35682e+06 6.3617e+06 6.36761e+06 6.37468e+06 6.37801e+06 
</DataArray>
<DataArray Name="strain" format="ascii" type="Float32">
0.00284874 0.00285174 0.00285513 0.00285887 0.00286254 0.00286554 0.00286753 0.00286888 0.00287041 0.00287277 0.00287593 0.00287947 0.00288306 0.00288664 0.00289019 0.00289356 0.00289664 0.00289949 0.00290225 0.00290499 0.00290759 0.00290998 0.00291219 0.0029143 0.00291635 0.00291838 0.00292062 0.00292334 0.00292658 0.00292811 
</DataArray>
</CellData>
<Polys>
<DataArray Name="connectivity" format="ascii" type="Int32">

</DataArray>
<DataArray Name="offsets" format="ascii" type="Int32">

</DataArray>
</Polys>
<Lines>
<DataArray Name="connectivity" format="ascii" type="Int32">
30 28 28 27 27 22 22 21 21 20 20 19 19 26 26 18 18 16 16 29 29 15 15 14 14 13 13 12 12 11 11 10 10 7 7 9 9 6 6 4 4 5 5 25 25 3 3 2 2 24 24 1 1 8 8 0 0 23 23 17 
</DataArray>
<DataArray Name="offsets" format="ascii" type="Int32">
2 4 6 8 10 12 14 16 18 20 22 24 26 28 30 32 34 36 38 40 42 44 46 48 50 52 54 56 58 60 
</DataArray>
</Lines>
</Piece>
</PolyData>
</VTKFile>
