<?xml version="1.0"?>
<VTKFile byte_order="LittleEndian" type="PolyData" version="0.1">
<PolyData>
<Piece NumberOfLines="30" NumberOfPoints="31" NumberOfPolys="0" NumberOfStrips="0" NumberOfVerts="0">
<Points>
<DataArray NumberOfComponents="3" format="ascii" type="Float32">
-33.078 0 198.387 -66.2517 0 183.236 -99.4936 0 168.235 -116.14 0 160.791 -166.177 0 138.682 -149.482 0 146.015 -182.889 0 131.387 -216.36 0 116.909 -49.6562 0 190.792 -199.617 0 124.13 -233.12 0 109.725 -249.896 0 102.579 -266.687 0 95.4705 -283.495 0 88.3993 -300.318 0 81.3658 -317.156 0 74.3702 -350.881 0 60.4931 0.0261135 0 213.691 -367.767 0 53.6126 -401.586 0 39.9689 -418.519 0 33.2063 -435.468 0 26.4837 -452.433 0 19.8013 -16.5171 0 206.02 -82.8642 0 175.716 -132.803 0 153.384 -384.668 0 46.7711 -469.414 0 13.1596 -486.411 0 6.55913 -334.011 0 67.4125 -503.424 0 0 
</DataArray>
</Points>
<PointData>
<DataArray Name="velocity_mag" format="ascii" type="Float32">
0.0231643 0.0267056 0.0311127 0.036537 0.0509 0.046666 0.0546711 0.06242 0.0262428 0.0603614 0.0671581 0.0669838 0.0619511 0.0614006 0.0579301 0.0586029 0.0487642 0 0.0434337 0.0355926 0.0327848 0.034753 0.0275604 0.0206405 0.0280371 0.0435871 0.0383017 0.0227721 0.0130829 0.0536672 0 
</DataArray>
</PointData>
<CellData Normals="cell_normals" Scalars="cell_scalars">
<DataArray Name="tension" format="ascii" type="Float32">
6.1889e+06 6.19495e+06 6.20135e+06 6.20824e+06 6.2156e+06 6.2231e+06 6.23025e+06 6.2366e+06 6.24204e+06 6.24689e+06 6.25178e+06 6.25733e+06 6.26381e+06 6.27104e+06 6.27858e+06 6.28598e+06 6.29306e+06 6.29995e+06 6.30696e+06 6.31439e+06 6.32236e+06 6.33081e+06 6.33957e+06 6.34844e+06 6.35726e+06 6.36591e+06 6.37431e+06 6.38239e+06 6.39006e+06 6.39995e+06 
</DataArray>
<DataArray Name="strain" format="ascii" type="Float32">
0.00284129 0.00284407 0.00284701 0.00285017 0.00285355 0.00285699 0.00286027 0.00286319 0.00286569 0.00286791 0.00287016 0.00287271 0.00287568 0.002879 0.00288246 0.00288586 0.00288911 0.00289227 0.00289549 0.0028989 0.00290256 0.00290644 0.00291046 0.00291453 0.00291858 0.00292255 0.00292641 0.00293012 0.00293364 0.00293818 
</DataArray>
</CellData>
<Polys>
<DataArray Name="connectivity" format="ascii" type="Int32">

</DataArray>
<DataArray Name="offsets" format="ascii" type="Int32">

</DataArray>
</Polys>
<Lines>
<DataArray Name="connectivity" format="ascii" type="Int32">
30 28 28 27 27 22 22 21 21 20 20 19 19 26 26 18 18 16 16 29 29 15 15 14 14 13 13 12 12 11 11 10 10 7 7 9 9 6 6 4 4 5 5 25 25 3 3 2 2 24 24 1 1 8 8 0 0 23 23 17 
</DataArray>
<DataArray Name="offsets" format="ascii" type="Int32">
2 4 6 8 10 12 14 16 18 20 22 24 26 28 30 32 34 36 38 40 42 44 46 48 50 52 54 56 58 60 
</DataArray>
</Lines>
</Piece>
</PolyData>
</VTKFile>
