<?xml version="1.0"?>
<VTKFile byte_order="LittleEndian" type="PolyData" version="0.1">
<PolyData>
<Piece NumberOfLines="30" NumberOfPoints="31" NumberOfPolys="0" NumberOfStrips="0" NumberOfVerts="0">
<Points>
<DataArray NumberOfComponents="3" format="ascii" type="Float32">
-33.0713 0 198.295 -66.2033 0 183.054 -99.4071 0 167.971 -116.036 0 160.49 -166.032 0 138.292 -149.349 0 145.65 -182.734 0 130.975 -216.191 0 116.465 -49.6283 0 190.655 -199.454 0 123.699 -232.947 0 109.273 -249.721 0 102.124 -266.513 0 95.0169 -283.322 0 87.9523 -300.15 0 80.9303 -316.995 0 73.9509 -350.738 0 60.1205 -0.0109855 0 213.691 -367.635 0 53.2697 -401.482 0 39.6963 -418.43 0 32.9737 -435.396 0 26.2937 -452.378 0 19.6566 -16.5322 0 205.974 -82.7962 0 175.493 -132.684 0 153.05 -384.55 0 46.4616 -469.377 0 13.0621 -486.393 0 6.50994 -333.858 0 67.0143 -503.424 0 0 
</DataArray>
</Points>
<PointData>
<DataArray Name="velocity_mag" format="ascii" type="Float32">
0.0406093 0.0605635 0.0804756 0.0870549 0.10807 0.10216 0.118792 0.130179 0.0502639 0.123187 0.132374 0.133025 0.135031 0.13093 0.133403 0.129289 0.110552 0 0.102253 0.0810982 0.0710673 0.0526724 0.0419652 0.0332861 0.0688319 0.0935 0.0938249 0.02937 0.0154076 0.122012 0 
</DataArray>
</PointData>
<CellData Normals="cell_normals" Scalars="cell_scalars">
<DataArray Name="tension" format="ascii" type="Float32">
6.15096e+06 6.15635e+06 6.16117e+06 6.16526e+06 6.16876e+06 6.17219e+06 6.17625e+06 6.18156e+06 6.18825e+06 6.19599e+06 6.20408e+06 6.21185e+06 6.21896e+06 6.2255e+06 6.23189e+06 6.23863e+06 6.24607e+06 6.25422e+06 6.26287e+06 6.27164e+06 6.28022e+06 6.28841e+06 6.29618e+06 6.30366e+06 6.31101e+06 6.31841e+06 6.32592e+06 6.3335e+06 6.34108e+06 6.34357e+06 
</DataArray>
<DataArray Name="strain" format="ascii" type="Float32">
0.00282387 0.00282635 0.00282856 0.00283044 0.00283205 0.00283362 0.00283549 0.00283792 0.00284099 0.00284454 0.00284826 0.00285183 0.00285509 0.00285809 0.00286103 0.00286412 0.00286754 0.00287128 0.00287525 0.00287928 0.00288322 0.00288697 0.00289054 0.00289398 0.00289735 0.00290075 0.0029042 0.00290768 0.00291116 0.0029123 
</DataArray>
</CellData>
<Polys>
<DataArray Name="connectivity" format="ascii" type="Int32">

</DataArray>
<DataArray Name="offsets" format="ascii" type="Int32">

</DataArray>
</Polys>
<Lines>
<DataArray Name="connectivity" format="ascii" type="Int32">
30 28 28 27 27 22 22 21 21 20 20 19 19 26 26 18 18 16 16 29 29 15 15 14 14 13 13 12 12 11 11 10 10 7 7 9 9 6 6 4 4 5 5 25 25 3 3 2 2 24 24 1 1 8 8 0 0 23 23 17 
</DataArray>
<DataArray Name="offsets" format="ascii" type="Int32">
2 4 6 8 10 12 14 16 18 20 22 24 26 28 30 32 34 36 38 40 42 44 46 48 50 52 54 56 58 60 
</DataArray>
</Lines>
</Piece>
</PolyData>
</VTKFile>
