<?xml version="1.0"?>
<VTKFile byte_order="LittleEndian" type="PolyData" version="0.1">
<PolyData>
<Piece NumberOfLines="30" NumberOfPoints="31" NumberOfPolys="0" NumberOfStrips="0" NumberOfVerts="0">
<Points>
<DataArray NumberOfComponents="3" format="ascii" type="Float32">
-33.0619 0 198.349 -66.2187 0 183.159 -99.445 0 168.124 -116.084 0 160.664 -166.105 0 138.516 -149.414 0 145.86 -182.813 0 131.212 -216.279 0 116.721 -49.6316 0 190.735 -199.537 0 123.946 -233.038 0 109.534 -249.814 0 102.388 -266.607 0 95.2809 -283.416 0 88.2136 -300.242 0 81.186 -317.084 0 74.1986 -350.818 0 60.3433 0.0244676 0 213.691 -367.71 0 53.4756 -401.541 0 39.8615 -418.482 0 33.1152 -435.438 0 26.4102 -452.411 0 19.746 -16.5099 0 206.001 -82.8232 0 175.622 -132.741 0 153.242 -384.617 0 46.6482 -469.399 0 13.1229 -486.404 0 6.54069 -333.943 0 67.251 -503.424 0 0 
</DataArray>
</Points>
<PointData>
<DataArray Name="velocity_mag" format="ascii" type="Float32">
0.0246798 0.0385678 0.0503736 0.0592739 0.0778944 0.0727818 0.0806327 0.0916639 0.0336916 0.0869919 0.090109 0.0881027 0.0866763 0.0838578 0.0801817 0.0798509 0.0694973 0 0.0610695 0.0437407 0.0325838 0.0243813 0.0147549 0.0209646 0.0450317 0.068597 0.0519985 0.0094184 0.00410148 0.0756755 0 
</DataArray>
</PointData>
<CellData Normals="cell_normals" Scalars="cell_scalars">
<DataArray Name="tension" format="ascii" type="Float32">
6.23362e+06 6.23986e+06 6.24632e+06 6.25272e+06 6.25875e+06 6.26422e+06 6.26913e+06 6.27372e+06 6.27837e+06 6.28345e+06 6.28919e+06 6.29556e+06 6.30228e+06 6.30894e+06 6.31515e+06 6.32072e+06 6.32571e+06 6.33041e+06 6.33521e+06 6.34041e+06 6.34614e+06 6.35235e+06 6.35884e+06 6.36544e+06 6.37209e+06 6.3788e+06 6.38564e+06 6.39262e+06 6.39964e+06 6.40967e+06 
</DataArray>
<DataArray Name="strain" format="ascii" type="Float32">
0.00286182 0.00286469 0.00286765 0.00287059 0.00287336 0.00287587 0.00287812 0.00288023 0.00288237 0.0028847 0.00288733 0.00289026 0.00289334 0.0028964 0.00289925 0.00290181 0.0029041 0.00290626 0.00290846 0.00291085 0.00291348 0.00291633 0.00291931 0.00292234 0.00292539 0.00292847 0.00293161 0.00293482 0.00293804 0.00294264 
</DataArray>
</CellData>
<Polys>
<DataArray Name="connectivity" format="ascii" type="Int32">

</DataArray>
<DataArray Name="offsets" format="ascii" type="Int32">

</DataArray>
</Polys>
<Lines>
<DataArray Name="connectivity" format="ascii" type="Int32">
30 28 28 27 27 22 22 21 21 20 20 19 19 26 26 18 18 16 16 29 29 15 15 14 14 13 13 12 12 11 11 10 10 7 7 9 9 6 6 4 4 5 5 25 25 3 3 2 2 24 24 1 1 8 8 0 0 23 23 17 
</DataArray>
<DataArray Name="offsets" format="ascii" type="Int32">
2 4 6 8 10 12 14 16 18 20 22 24 26 28 30 32 34 36 38 40 42 44 46 48 50 52 54 56 58 60 
</DataArray>
</Lines>
</Piece>
</PolyData>
</VTKFile>
