<?xml version="1.0"?>
<VTKFile byte_order="LittleEndian" type="PolyData" version="0.1">
<PolyData>
<Piece NumberOfLines="30" NumberOfPoints="31" NumberOfPolys="0" NumberOfStrips="0" NumberOfVerts="0">
<Points>
<DataArray NumberOfComponents="3" format="ascii" type="Float32">
-33.0928 0 198.304 -66.2279 0 183.074 -99.4356 0 168.003 -116.066 0 160.527 -166.067 0 138.344 -149.382 0 145.698 -182.769 0 131.031 -216.228 0 116.529 -49.6513 0 190.669 -199.49 0 123.759 -232.984 0 109.339 -249.758 0 102.191 -266.549 0 95.0846 -283.357 0 88.0195 -300.183 0 80.9958 -317.027 0 74.014 -350.765 0 60.1756 -0.0302782 0 213.691 -367.66 0 53.3194 -401.5 0 39.7343 -418.446 0 33.0053 -435.408 0 26.3188 -452.387 0 19.6749 -16.5524 0 205.978 -82.8227 0 175.518 -132.715 0 153.092 -384.571 0 46.5056 -469.383 0 13.074 -486.395 0 6.51567 -333.887 0 67.0738 -503.424 0 0 
</DataArray>
</Points>
<PointData>
<DataArray Name="velocity_mag" format="ascii" type="Float32">
0.0471071 0.083758 0.123304 0.144187 0.192191 0.181195 0.204324 0.218511 0.065171 0.209648 0.222458 0.222035 0.22074 0.216981 0.217435 0.205774 0.183693 0 0.168082 0.134064 0.114718 0.0917919 0.0705936 0.0232018 0.101237 0.164251 0.153781 0.0450267 0.0238656 0.195754 0 
</DataArray>
</PointData>
<CellData Normals="cell_normals" Scalars="cell_scalars">
<DataArray Name="tension" format="ascii" type="Float32">
6.07529e+06 6.08113e+06 6.08707e+06 6.09313e+06 6.09934e+06 6.10561e+06 6.1118e+06 6.11772e+06 6.12322e+06 6.12825e+06 6.13284e+06 6.13713e+06 6.14123e+06 6.14527e+06 6.14932e+06 6.15345e+06 6.15778e+06 6.1625e+06 6.16787e+06 6.17412e+06 6.18142e+06 6.18972e+06 6.19873e+06 6.20789e+06 6.21648e+06 6.22392e+06 6.23001e+06 6.23509e+06 6.23997e+06 6.24577e+06 
</DataArray>
<DataArray Name="strain" format="ascii" type="Float32">
0.00278913 0.00279182 0.00279454 0.00279732 0.00280017 0.00280305 0.00280589 0.00280861 0.00281114 0.00281345 0.00281556 0.00281752 0.00281941 0.00282126 0.00282312 0.00282501 0.002827 0.00282917 0.00283164 0.00283451 0.00283786 0.00284167 0.0028458 0.00285001 0.00285395 0.00285737 0.00286016 0.0028625 0.00286474 0.0028674 
</DataArray>
</CellData>
<Polys>
<DataArray Name="connectivity" format="ascii" type="Int32">

</DataArray>
<DataArray Name="offsets" format="ascii" type="Int32">

</DataArray>
</Polys>
<Lines>
<DataArray Name="connectivity" format="ascii" type="Int32">
30 28 28 27 27 22 22 21 21 20 20 19 19 26 26 18 18 16 16 29 29 15 15 14 14 13 13 12 12 11 11 10 10 7 7 9 9 6 6 4 4 5 5 25 25 3 3 2 2 24 24 1 1 8 8 0 0 23 23 17 
</DataArray>
<DataArray Name="offsets" format="ascii" type="Int32">
2 4 6 8 10 12 14 16 18 20 22 24 26 28 30 32 34 36 38 40 42 44 46 48 50 52 54 56 58 60 
</DataArray>
</Lines>
</Piece>
</PolyData>
</VTKFile>
