<?xml version="1.0"?>
<VTKFile byte_order="LittleEndian" type="PolyData" version="0.1">
<PolyData>
<Piece NumberOfLines="30" NumberOfPoints="31" NumberOfPolys="0" NumberOfStrips="0" NumberOfVerts="0">
<Points>
<DataArray NumberOfComponents="3" format="ascii" type="Float32">
-33.0642 0 198.351 -66.2218 0 183.164 -99.449 0 168.13 -116.088 0 160.671 -166.11 0 138.526 -149.419 0 145.869 -182.818 0 131.223 -216.285 0 116.733 -49.6343 0 190.738 -199.543 0 123.958 -233.044 0 109.547 -249.82 0 102.401 -266.612 0 95.2938 -283.421 0 88.2263 -300.247 0 81.1982 -317.089 0 74.2099 -350.822 0 60.3533 0.0230766 0 213.691 -367.713 0 53.485 -401.545 0 39.8695 -418.484 0 33.1224 -435.44 0 26.4158 -452.412 0 19.75 -16.5117 0 206.002 -82.8267 0 175.628 -132.745 0 153.251 -384.621 0 46.657 -469.4 0 13.1252 -486.404 0 6.54173 -333.947 0 67.2616 -503.424 0 0 
</DataArray>
</Points>
<PointData>
<DataArray Name="velocity_mag" format="ascii" type="Float32">
0.0686452 0.141229 0.208923 0.239892 0.310777 0.287948 0.324654 0.346127 0.105973 0.337861 0.35504 0.360478 0.358611 0.356338 0.348544 0.339832 0.297102 0 0.270842 0.217059 0.185424 0.152569 0.11431 0.0338537 0.177996 0.266653 0.241122 0.0782411 0.0372429 0.318564 0 
</DataArray>
</PointData>
<CellData Normals="cell_normals" Scalars="cell_scalars">
<DataArray Name="tension" format="ascii" type="Float32">
6.23743e+06 6.2424e+06 6.24668e+06 6.25053e+06 6.25424e+06 6.25807e+06 6.26218e+06 6.26662e+06 6.27137e+06 6.27635e+06 6.28149e+06 6.28678e+06 6.29223e+06 6.29786e+06 6.30356e+06 6.30915e+06 6.31446e+06 6.31945e+06 6.32436e+06 6.32955e+06 6.33535e+06 6.34189e+06 6.34901e+06 6.35643e+06 6.36391e+06 6.37139e+06 6.37891e+06 6.38648e+06 6.39403e+06 6.39795e+06 
</DataArray>
<DataArray Name="strain" format="ascii" type="Float32">
0.00286357 0.00286585 0.00286782 0.00286958 0.00287129 0.00287305 0.00287493 0.00287697 0.00287915 0.00288144 0.0028838 0.00288623 0.00288873 0.00289131 0.00289393 0.0028965 0.00289893 0.00290123 0.00290348 0.00290586 0.00290853 0.00291153 0.0029148 0.0029182 0.00292164 0.00292507 0.00292853 0.002932 0.00293546 0.00293726 
</DataArray>
</CellData>
<Polys>
<DataArray Name="connectivity" format="ascii" type="Int32">

</DataArray>
<DataArray Name="offsets" format="ascii" type="Int32">

</DataArray>
</Polys>
<Lines>
<DataArray Name="connectivity" format="ascii" type="Int32">
30 28 28 27 27 22 22 21 21 20 20 19 19 26 26 18 18 16 16 29 29 15 15 14 14 13 13 12 12 11 11 10 10 7 7 9 9 6 6 4 4 5 5 25 25 3 3 2 2 24 24 1 1 8 8 0 0 23 23 17 
</DataArray>
<DataArray Name="offsets" format="ascii" type="Int32">
2 4 6 8 10 12 14 16 18 20 22 24 26 28 30 32 34 36 38 40 42 44 46 48 50 52 54 56 58 60 
</DataArray>
</Lines>
</Piece>
</PolyData>
</VTKFile>
